# auto generated

750 atoms
2 atom types

 0.0000000  22.9650000 xlo xhi
 0.0000000  22.9650000 ylo yhi
 0.0000000  14.9050000 zlo zhi

Atoms 

     1  1  1.9000  2.296500000  2.296500000  1.490500000
     2  1  1.9000 18.372000000  0.000000000 11.924000000
     3  1  1.9000 20.668500000  2.296500000 13.414500000
     4  1  1.9000  6.889500000  6.889500000  4.471500000
     5  1  1.9000  4.593000000  4.593000000  2.981000000
     6  1  1.9000 13.779000000  4.593000000 11.924000000
     7  1  1.9000  9.186000000  9.186000000  0.000000000
     8  1  1.9000  6.889500000  6.889500000  7.452500000
     9  1  1.9000  4.593000000  4.593000000  5.962000000
    10  1  1.9000 18.372000000  0.000000000  8.943000000
    11  1  1.9000 20.668500000  2.296500000 10.433500000
    12  1  1.9000 11.482500000 11.482500000  1.490500000
    13  1  1.9000  6.889500000  6.889500000 10.433500000
    14  1  1.9000  4.593000000  4.593000000  8.943000000
    15  1  1.9000 16.075500000 11.482500000  1.490500000
    16  1  1.9000 16.075500000  6.889500000 13.414500000
    17  1  1.9000 18.372000000  0.000000000  5.962000000
    18  1  1.9000  6.889500000  6.889500000 13.414500000
    19  1  1.9000  4.593000000  4.593000000 11.924000000
    20  1  1.9000 13.779000000  9.186000000  0.000000000
    21  1  1.9000  9.186000000  4.593000000 11.924000000
    22  1  1.9000 11.482500000  6.889500000 13.414500000
    23  1  1.9000  6.889500000 11.482500000  1.490500000
    24  1  1.9000  4.593000000  9.186000000  0.000000000
    25  1  1.9000 18.372000000  0.000000000  2.981000000
    26  1  1.9000 20.668500000  2.296500000  4.471500000
    27  1  1.9000  6.889500000 11.482500000  4.471500000
    28  1  1.9000  4.593000000  9.186000000  2.981000000
    29  1  1.9000  9.186000000  4.593000000  8.943000000
    30  1  1.9000 18.372000000  0.000000000  0.000000000
    31  1  1.9000 20.668500000  2.296500000  1.490500000
    32  1  1.9000 20.668500000  2.296500000  7.452500000
    33  1  1.9000 11.482500000 11.482500000  4.471500000
    34  1  1.9000  4.593000000  4.593000000  0.000000000
    35  1  1.9000  6.889500000  6.889500000  1.490500000
    36  1  1.9000 20.668500000  6.889500000 13.414500000
    37  1  1.9000 11.482500000 11.482500000 13.414500000
    38  1  1.9000 16.075500000  6.889500000  7.452500000
    39  1  1.9000  2.296500000 20.668500000 13.414500000
    40  1  1.9000  0.000000000 18.372000000 11.924000000
    41  1  1.9000 13.779000000  4.593000000  5.962000000
    42  1  1.9000 18.372000000  4.593000000  8.943000000
    43  1  1.9000 20.668500000  6.889500000 10.433500000
    44  1  1.9000  6.889500000  2.296500000  1.490500000
    45  1  1.9000  4.593000000  0.000000000  0.000000000
    46  1  1.9000  9.186000000  9.186000000  8.943000000
    47  1  1.9000 16.075500000 16.075500000  1.490500000
    48  1  1.9000  6.889500000  2.296500000  4.471500000
    49  1  1.9000  4.593000000  0.000000000  2.981000000
    50  1  1.9000 18.372000000  4.593000000  5.962000000
    51  1  1.9000 20.668500000  6.889500000  7.452500000
    52  1  1.9000 16.075500000  6.889500000 10.433500000
    53  1  1.9000  9.186000000  9.186000000  2.981000000
    54  1  1.9000 20.668500000  6.889500000  1.490500000
    55  1  1.9000 18.372000000  4.593000000  0.000000000
    56  1  1.9000  4.593000000  0.000000000 11.924000000
    57  1  1.9000  6.889500000  2.296500000 13.414500000
    58  1  1.9000 11.482500000 11.482500000  7.452500000
    59  1  1.9000  6.889500000 11.482500000  7.452500000
    60  1  1.9000  4.593000000  0.000000000  8.943000000
    61  1  1.9000 20.668500000  6.889500000  4.471500000
    62  1  1.9000 18.372000000  4.593000000  2.981000000
    63  1  1.9000  9.186000000  9.186000000  5.962000000
    64  1  1.9000 13.779000000  4.593000000  8.943000000
    65  1  1.9000  4.593000000  0.000000000  5.962000000
    66  1  1.9000  6.889500000  2.296500000  7.452500000
    67  1  1.9000  6.889500000  2.296500000 10.433500000
    68  1  1.9000  4.593000000  9.186000000  5.962000000
    69  1  1.9000 16.075500000  2.296500000  1.490500000
    70  1  1.9000 11.482500000  6.889500000 10.433500000
    71  1  1.9000 13.779000000  9.186000000  8.943000000
    72  1  1.9000  6.889500000 20.668500000  1.490500000
    73  1  1.9000  4.593000000 18.372000000  0.000000000
    74  1  1.9000 13.779000000 13.779000000 11.924000000
    75  1  1.9000 16.075500000 16.075500000 13.414500000
    76  1  1.9000  6.889500000 20.668500000  4.471500000
    77  1  1.9000  4.593000000 18.372000000  2.981000000
    78  1  1.9000  9.186000000  0.000000000 11.924000000
    79  1  1.9000 11.482500000  2.296500000 13.414500000
    80  1  1.9000  6.889500000 20.668500000  7.452500000
    81  1  1.9000  4.593000000 18.372000000  5.962000000
    82  1  1.9000 13.779000000 13.779000000  8.943000000
    83  1  1.9000 16.075500000 16.075500000 10.433500000
    84  1  1.9000 16.075500000 11.482500000 13.414500000
    85  1  1.9000 13.779000000  9.186000000 11.924000000
    86  1  1.9000  6.889500000 20.668500000 10.433500000
    87  1  1.9000  4.593000000 18.372000000  8.943000000
    88  1  1.9000  9.186000000  0.000000000  2.981000000
    89  1  1.9000 11.482500000  2.296500000  4.471500000
    90  1  1.9000 11.482500000  2.296500000  7.452500000
    91  1  1.9000  9.186000000  0.000000000  5.962000000
    92  1  1.9000 16.075500000 16.075500000  4.471500000
    93  1  1.9000 13.779000000 13.779000000  2.981000000
    94  1  1.9000 16.075500000 11.482500000 10.433500000
    95  1  1.9000  9.186000000  0.000000000  0.000000000
    96  1  1.9000  4.593000000 18.372000000 11.924000000
    97  1  1.9000  6.889500000 20.668500000 13.414500000
    98  1  1.9000 16.075500000 16.075500000  7.452500000
    99  1  1.9000 13.779000000 13.779000000  5.962000000
   100  1  1.9000 11.482500000  2.296500000 10.433500000
   101  1  1.9000  9.186000000  0.000000000  8.943000000
   102  1  1.9000 11.482500000  2.296500000  1.490500000
   103  1  1.9000 18.372000000  4.593000000 11.924000000
   104  1  1.9000 16.075500000 20.668500000  1.490500000
   105  1  1.9000  4.593000000 13.779000000 11.924000000
   106  1  1.9000 16.075500000 11.482500000  4.471500000
   107  1  1.9000 13.779000000  9.186000000  2.981000000
   108  1  1.9000  6.889500000 11.482500000 10.433500000
   109  1  1.9000  4.593000000  9.186000000  8.943000000
   110  1  1.9000 13.779000000 18.372000000 11.924000000
   111  1  1.9000 16.075500000 20.668500000 13.414500000
   112  1  1.9000  6.889500000 11.482500000 13.414500000
   113  1  1.9000  4.593000000  9.186000000 11.924000000
   114  1  1.9000  9.186000000  4.593000000  5.962000000
   115  1  1.9000 11.482500000  6.889500000  7.452500000
   116  1  1.9000 13.779000000 18.372000000  8.943000000
   117  1  1.9000 16.075500000 20.668500000 10.433500000
   118  1  1.9000  6.889500000 16.075500000  1.490500000
   119  1  1.9000  4.593000000 13.779000000  0.000000000
   120  1  1.9000 16.075500000 11.482500000  7.452500000
   121  1  1.9000 13.779000000  9.186000000  5.962000000
   122  1  1.9000  6.889500000 16.075500000  4.471500000
   123  1  1.9000  6.889500000 16.075500000 13.414500000
   124  1  1.9000 11.482500000  6.889500000  1.490500000
   125  1  1.9000  9.186000000  4.593000000  0.000000000
   126  1  1.9000  4.593000000 13.779000000  8.943000000
   127  1  1.9000  6.889500000 16.075500000 10.433500000
   128  1  1.9000 16.075500000 20.668500000  4.471500000
   129  1  1.9000 13.779000000 18.372000000  0.000000000
   130  1  1.9000 13.779000000 18.372000000  2.981000000
   131  1  1.9000  6.889500000 16.075500000  7.452500000
   132  1  1.9000 11.482500000  6.889500000  4.471500000
   133  1  1.9000  9.186000000  4.593000000  2.981000000
   134  1  1.9000 16.075500000 20.668500000  7.452500000
   135  1  1.9000 13.779000000 18.372000000  5.962000000
   136  1  1.9000  4.593000000 13.779000000  2.981000000
   137  1  1.9000  4.593000000 13.779000000  5.962000000
   138  1  1.9000  0.000000000 18.372000000  8.943000000
   139  1  1.9000 11.482500000 11.482500000 10.433500000
   140  1  1.9000  9.186000000  9.186000000 11.924000000
   141  1  1.9000  0.000000000  4.593000000  5.962000000
   142  1  1.9000 13.779000000  0.000000000  5.962000000
   143  1  1.9000  9.186000000 18.372000000  2.981000000
   144  1  1.9000 11.482500000 20.668500000  4.471500000
   145  1  1.9000  2.296500000  6.889500000 10.433500000
   146  1  1.9000  0.000000000  4.593000000  8.943000000
   147  1  1.9000 18.372000000 13.779000000 11.924000000
   148  1  1.9000 20.668500000 16.075500000 13.414500000
   149  1  1.9000  2.296500000  6.889500000 13.414500000
   150  1  1.9000  0.000000000  4.593000000 11.924000000
   151  1  1.9000  9.186000000 18.372000000  0.000000000
   152  1  1.9000 18.372000000 13.779000000  8.943000000
   153  1  1.9000 20.668500000 16.075500000 10.433500000
   154  1  1.9000  2.296500000 11.482500000  1.490500000
   155  1  1.9000  2.296500000  6.889500000  7.452500000
   156  1  1.9000  0.000000000  9.186000000  0.000000000
   157  1  1.9000 16.075500000  2.296500000 10.433500000
   158  1  1.9000 13.779000000  0.000000000  8.943000000
   159  1  1.9000  2.296500000 11.482500000  4.471500000
   160  1  1.9000  0.000000000  9.186000000  2.981000000
   161  1  1.9000  2.296500000 20.668500000 10.433500000
   162  1  1.9000 20.668500000 16.075500000  7.452500000
   163  1  1.9000  9.186000000 13.779000000 11.924000000
   164  1  1.9000  2.296500000 11.482500000  7.452500000
   165  1  1.9000  0.000000000  9.186000000  5.962000000
   166  1  1.9000 11.482500000 16.075500000 13.414500000
   167  1  1.9000 18.372000000 13.779000000  2.981000000
   168  1  1.9000 20.668500000 16.075500000  4.471500000
   169  1  1.9000  2.296500000 11.482500000 10.433500000
   170  1  1.9000  0.000000000  9.186000000  8.943000000
   171  1  1.9000 11.482500000 20.668500000  1.490500000
   172  1  1.9000 16.075500000  2.296500000 13.414500000
   173  1  1.9000 20.668500000 20.668500000  1.490500000
   174  1  1.9000 16.075500000  2.296500000  7.452500000
   175  1  1.9000  0.000000000  0.000000000  0.000000000
   176  1  1.9000 13.779000000  0.000000000  0.000000000
   177  1  1.9000  9.186000000 18.372000000 11.924000000
   178  1  1.9000 18.372000000 18.372000000 11.924000000
   179  1  1.9000 20.668500000 20.668500000 13.414500000
   180  1  1.9000  2.296500000  2.296500000  4.471500000
   181  1  1.9000  0.000000000  0.000000000  2.981000000
   182  1  1.9000 11.482500000 20.668500000 13.414500000
   183  1  1.9000  2.296500000  2.296500000  7.452500000
   184  1  1.9000  0.000000000  0.000000000  5.962000000
   185  1  1.9000 18.372000000 18.372000000  8.943000000
   186  1  1.9000 20.668500000 20.668500000 10.433500000
   187  1  1.9000  9.186000000 18.372000000  8.943000000
   188  1  1.9000  2.296500000  2.296500000 10.433500000
   189  1  1.9000 18.372000000 18.372000000  0.000000000
   190  1  1.9000  0.000000000  0.000000000  8.943000000
   191  1  1.9000 16.075500000  2.296500000  4.471500000
   192  1  1.9000 18.372000000 18.372000000  5.962000000
   193  1  1.9000 20.668500000 20.668500000  7.452500000
   194  1  1.9000  2.296500000  2.296500000 13.414500000
   195  1  1.9000  0.000000000  0.000000000 11.924000000
   196  1  1.9000 13.779000000  0.000000000  2.981000000
   197  1  1.9000  9.186000000 18.372000000  5.962000000
   198  1  1.9000  2.296500000  6.889500000  1.490500000
   199  1  1.9000  0.000000000  4.593000000  0.000000000
   200  1  1.9000 18.372000000 18.372000000  2.981000000
   201  1  1.9000 20.668500000 20.668500000  4.471500000
   202  1  1.9000 11.482500000 20.668500000  7.452500000
   203  1  1.9000  2.296500000  6.889500000  4.471500000
   204  1  1.9000  0.000000000  4.593000000  2.981000000
   205  1  1.9000 11.482500000 20.668500000 10.433500000
   206  1  1.9000 13.779000000  0.000000000 11.924000000
   207  1  1.9000 18.372000000 13.779000000  5.962000000
   208  1  1.9000  2.296500000 11.482500000 13.414500000
   209  1  1.9000  0.000000000 13.779000000  5.962000000
   210  1  1.9000 18.372000000  9.186000000  8.943000000
   211  1  1.9000 20.668500000 11.482500000 10.433500000
   212  1  1.9000 13.779000000  4.593000000  0.000000000
   213  1  1.9000  2.296500000 16.075500000 10.433500000
   214  1  1.9000  0.000000000 13.779000000  8.943000000
   215  1  1.9000  9.186000000 13.779000000  8.943000000
   216  1  1.9000  9.186000000 13.779000000  2.981000000
   217  1  1.9000 18.372000000  9.186000000  5.962000000
   218  1  1.9000 20.668500000 11.482500000  7.452500000
   219  1  1.9000  2.296500000 16.075500000 13.414500000
   220  1  1.9000  0.000000000 13.779000000 11.924000000
   221  1  1.9000 11.482500000 16.075500000  4.471500000
   222  1  1.9000 16.075500000  6.889500000  4.471500000
   223  1  1.9000  2.296500000 20.668500000  1.490500000
   224  1  1.9000  0.000000000 18.372000000  0.000000000
   225  1  1.9000 18.372000000  9.186000000  2.981000000
   226  1  1.9000 20.668500000 11.482500000  4.471500000
   227  1  1.9000 13.779000000  4.593000000  2.981000000
   228  1  1.9000  9.186000000 13.779000000  0.000000000
   229  1  1.9000  2.296500000 20.668500000  4.471500000
   230  1  1.9000  0.000000000 18.372000000  2.981000000
   231  1  1.9000 11.482500000 16.075500000  1.490500000
   232  1  1.9000 18.372000000  9.186000000  0.000000000
   233  1  1.9000 20.668500000 11.482500000  1.490500000
   234  1  1.9000  2.296500000 20.668500000  7.452500000
   235  1  1.9000  0.000000000 18.372000000  5.962000000
   236  1  1.9000  2.296500000 16.075500000  7.452500000
   237  1  1.9000 16.075500000  6.889500000  1.490500000
   238  1  1.9000 13.779000000 13.779000000  0.000000000
   239  1  1.9000  2.296500000 16.075500000  1.490500000
   240  1  1.9000 18.372000000  9.186000000 11.924000000
   241  1  1.9000  2.296500000 16.075500000  4.471500000
   242  1  1.9000  0.000000000 13.779000000  0.000000000
   243  1  1.9000 20.668500000 11.482500000 13.414500000
   244  1  1.9000 18.372000000 13.779000000  0.000000000
   245  1  1.9000  0.000000000  9.186000000 11.924000000
   246  1  1.9000 11.482500000 16.075500000 10.433500000
   247  1  1.9000 11.482500000 16.075500000  7.452500000
   248  1  1.9000  9.186000000 13.779000000  5.962000000
   249  1  1.9000  0.000000000 13.779000000  2.981000000
   250  1  1.9000 20.668500000 16.075500000  1.490500000
   251  2 -0.9500 16.972696673 12.379696673  0.000000000
   252  2 -0.9500 16.972696673 12.379696673  8.943000000
   253  2 -0.9500 15.178303327 10.585303327  8.943000000
   254  2 -0.9500 14.676196673  3.695803327 13.414500000
   255  2 -0.9500 15.178303327  5.992303327  5.962000000
   256  2 -0.9500 15.178303327  1.399303327  8.943000000
   257  2 -0.9500 15.178303327 10.585303327  0.000000000
   258  2 -0.9500 17.474803327  5.490196673  7.452500000
   259  2 -0.9500 16.972696673  3.193696673  0.000000000
   260  2 -0.9500 17.474803327 10.083196673  1.490500000
   261  2 -0.9500 16.972696673  3.193696673  5.962000000
   262  2 -0.9500 15.178303327  5.992303327 11.924000000
   263  2 -0.9500 15.178303327  1.399303327  0.000000000
   264  2 -0.9500 17.474803327  0.897196673  1.490500000
   265  2 -0.9500 14.676196673  3.695803327  1.490500000
   266  2 -0.9500 14.676196673 12.881803327 13.414500000
   267  2 -0.9500 17.474803327 10.083196673 13.414500000
   268  2 -0.9500 15.178303327 10.585303327 11.924000000
   269  2 -0.9500 16.972696673 12.379696673 11.924000000
   270  2 -0.9500 14.676196673  8.288803327  7.452500000
   271  2 -0.9500 14.676196673 12.881803327  1.490500000
   272  2 -0.9500 16.972696673  3.193696673  8.943000000
   273  2 -0.9500 17.474803327  5.490196673  4.471500000
   274  2 -0.9500 15.178303327  5.992303327  2.981000000
   275  2 -0.9500 16.972696673  7.786696673  2.981000000
   276  2 -0.9500 16.972696673  7.786696673 11.924000000
   277  2 -0.9500 14.676196673  8.288803327  4.471500000
   278  2 -0.9500 17.474803327 10.083196673 10.433500000
   279  2 -0.9500 14.676196673  3.695803327  4.471500000
   280  2 -0.9500 16.972696673  3.193696673 11.924000000
   281  2 -0.9500 15.178303327  1.399303327  5.962000000
   282  2 -0.9500 15.178303327 10.585303327  2.981000000
   283  2 -0.9500 16.972696673 12.379696673  2.981000000
   284  2 -0.9500 17.474803327  0.897196673  7.452500000
   285  2 -0.9500 17.474803327 10.083196673  4.471500000
   286  2 -0.9500 14.676196673 12.881803327  4.471500000
   287  2 -0.9500 16.972696673  7.786696673  8.943000000
   288  2 -0.9500 14.676196673  3.695803327  7.452500000
   289  2 -0.9500 14.676196673  8.288803327  1.490500000
   290  2 -0.9500 14.676196673  8.288803327 13.414500000
   291  2 -0.9500 17.474803327  5.490196673 13.414500000
   292  2 -0.9500 14.676196673 12.881803327  7.452500000
   293  2 -0.9500 17.474803327 10.083196673  7.452500000
   294  2 -0.9500 15.178303327  5.992303327  8.943000000
   295  2 -0.9500 17.474803327  5.490196673 10.433500000
   296  2 -0.9500 17.474803327  5.490196673  1.490500000
   297  2 -0.9500 15.178303327 10.585303327  5.962000000
   298  2 -0.9500 16.972696673 12.379696673  5.962000000
   299  2 -0.9500 16.972696673  3.193696673  2.981000000
   300  2 -0.9500 14.676196673  3.695803327 10.433500000
   301  2 -0.9500 15.178303327  1.399303327  2.981000000
   302  2 -0.9500 15.178303327  1.399303327 11.924000000
   303  2 -0.9500 17.474803327  0.897196673 13.414500000
   304  2 -0.9500 17.474803327  0.897196673 10.433500000
   305  2 -0.9500 15.178303327  5.992303327  0.000000000
   306  2 -0.9500 16.972696673  7.786696673  0.000000000
   307  2 -0.9500 14.676196673 12.881803327 10.433500000
   308  2 -0.9500 17.474803327  0.897196673  4.471500000
   309  2 -0.9500 16.972696673  7.786696673  5.962000000
   310  2 -0.9500 14.676196673  8.288803327 10.433500000
   311  2 -0.9500 16.972696673 21.565696673 11.924000000
   312  2 -0.9500 17.474803327 14.676196673  1.490500000
   313  2 -0.9500 19.771303327 15.178303327  0.000000000
   314  2 -0.9500 22.067803327 14.676196673  1.490500000
   315  2 -0.9500 19.269196673 17.474803327  1.490500000
   316  2 -0.9500 21.565696673 12.379696673 11.924000000
   317  2 -0.9500 19.771303327 10.585303327 11.924000000
   318  2 -0.9500 22.067803327 10.083196673 13.414500000
   319  2 -0.9500 19.269196673 12.881803327 13.414500000
   320  2 -0.9500 21.565696673 12.379696673  8.943000000
   321  2 -0.9500 19.771303327 10.585303327  8.943000000
   322  2 -0.9500 22.067803327 10.083196673 10.433500000
   323  2 -0.9500 19.269196673 12.881803327 10.433500000
   324  2 -0.9500 21.565696673 12.379696673  5.962000000
   325  2 -0.9500 19.771303327 10.585303327  5.962000000
   326  2 -0.9500 22.067803327 10.083196673  7.452500000
   327  2 -0.9500 21.565696673 16.972696673  0.000000000
   328  2 -0.9500 19.269196673 12.881803327  7.452500000
   329  2 -0.9500 19.771303327 10.585303327  2.981000000
   330  2 -0.9500 22.067803327 10.083196673  4.471500000
   331  2 -0.9500 19.269196673 12.881803327  4.471500000
   332  2 -0.9500 21.565696673 12.379696673  0.000000000
   333  2 -0.9500 19.771303327 10.585303327  0.000000000
   334  2 -0.9500 22.067803327 10.083196673  1.490500000
   335  2 -0.9500 19.269196673 12.881803327  1.490500000
   336  2 -0.9500 21.565696673  7.786696673 11.924000000
   337  2 -0.9500 19.771303327  5.992303327 11.924000000
   338  2 -0.9500 22.067803327  5.490196673 13.414500000
   339  2 -0.9500 19.269196673  8.288803327 13.414500000
   340  2 -0.9500 21.565696673  7.786696673  8.943000000
   341  2 -0.9500 19.771303327  5.992303327  8.943000000
   342  2 -0.9500 22.067803327  5.490196673 10.433500000
   343  2 -0.9500 21.565696673 12.379696673  2.981000000
   344  2 -0.9500 19.269196673 17.474803327  4.471500000
   345  2 -0.9500 22.067803327 14.676196673  4.471500000
   346  2 -0.9500 19.771303327 15.178303327  2.981000000
   347  2 -0.9500 22.067803327 19.269196673 13.414500000
   348  2 -0.9500 19.269196673 22.067803327 13.414500000
   349  2 -0.9500 21.565696673 21.565696673  8.943000000
   350  2 -0.9500 19.771303327 19.771303327  8.943000000
   351  2 -0.9500 22.067803327 19.269196673 10.433500000
   352  2 -0.9500 19.269196673 22.067803327 10.433500000
   353  2 -0.9500 21.565696673 21.565696673  5.962000000
   354  2 -0.9500 19.771303327 19.771303327  5.962000000
   355  2 -0.9500 22.067803327 19.269196673  7.452500000
   356  2 -0.9500 19.269196673 22.067803327  7.452500000
   357  2 -0.9500 21.565696673 21.565696673  2.981000000
   358  2 -0.9500 19.771303327 19.771303327  2.981000000
   359  2 -0.9500 22.067803327 19.269196673  4.471500000
   360  2 -0.9500 19.269196673 22.067803327  4.471500000
   361  2 -0.9500 21.565696673 21.565696673  0.000000000
   362  2 -0.9500 19.771303327 19.771303327  0.000000000
   363  2 -0.9500 22.067803327 19.269196673  1.490500000
   364  2 -0.9500 21.565696673 16.972696673  2.981000000
   365  2 -0.9500 19.269196673 17.474803327  7.452500000
   366  2 -0.9500 22.067803327 14.676196673  7.452500000
   367  2 -0.9500 19.771303327 15.178303327  5.962000000
   368  2 -0.9500 21.565696673 16.972696673  5.962000000
   369  2 -0.9500 19.269196673 17.474803327 10.433500000
   370  2 -0.9500 19.269196673  8.288803327 10.433500000
   371  2 -0.9500 22.067803327 14.676196673 10.433500000
   372  2 -0.9500 21.565696673 16.972696673  8.943000000
   373  2 -0.9500 19.269196673 17.474803327 13.414500000
   374  2 -0.9500 22.067803327 14.676196673 13.414500000
   375  2 -0.9500 19.771303327 15.178303327 11.924000000
   376  2 -0.9500 21.565696673 16.972696673 11.924000000
   377  2 -0.9500 19.269196673 22.067803327  1.490500000
   378  2 -0.9500 19.771303327 15.178303327  8.943000000
   379  2 -0.9500 21.565696673  7.786696673  5.962000000
   380  2 -0.9500 19.771303327  5.992303327  5.962000000
   381  2 -0.9500 22.067803327  5.490196673  7.452500000
   382  2 -0.9500 14.676196673 22.067803327 10.433500000
   383  2 -0.9500 16.972696673 21.565696673  5.962000000
   384  2 -0.9500 15.178303327 19.771303327  5.962000000
   385  2 -0.9500 17.474803327 19.269196673  7.452500000
   386  2 -0.9500 14.676196673 22.067803327  7.452500000
   387  2 -0.9500 16.972696673 21.565696673  2.981000000
   388  2 -0.9500 15.178303327 19.771303327  2.981000000
   389  2 -0.9500 17.474803327 19.269196673  4.471500000
   390  2 -0.9500 14.676196673 22.067803327  4.471500000
   391  2 -0.9500 16.972696673 21.565696673  0.000000000
   392  2 -0.9500 15.178303327 19.771303327  0.000000000
   393  2 -0.9500 17.474803327 19.269196673  1.490500000
   394  2 -0.9500 14.676196673 22.067803327  1.490500000
   395  2 -0.9500 16.972696673 16.972696673 11.924000000
   396  2 -0.9500 15.178303327 15.178303327 11.924000000
   397  2 -0.9500 17.474803327 14.676196673 13.414500000
   398  2 -0.9500 14.676196673 17.474803327 13.414500000
   399  2 -0.9500 15.178303327 15.178303327  0.000000000
   400  2 -0.9500 16.972696673 16.972696673  0.000000000
   401  2 -0.9500 14.676196673 17.474803327  4.471500000
   402  2 -0.9500 17.474803327 14.676196673  4.471500000
   403  2 -0.9500 15.178303327 15.178303327  2.981000000
   404  2 -0.9500 16.972696673 16.972696673  2.981000000
   405  2 -0.9500 17.474803327 19.269196673 10.433500000
   406  2 -0.9500 14.676196673 17.474803327  7.452500000
   407  2 -0.9500 15.178303327 15.178303327  5.962000000
   408  2 -0.9500 16.972696673 16.972696673  5.962000000
   409  2 -0.9500 14.676196673 17.474803327 10.433500000
   410  2 -0.9500 17.474803327 14.676196673 10.433500000
   411  2 -0.9500 15.178303327 15.178303327  8.943000000
   412  2 -0.9500 16.972696673 16.972696673  8.943000000
   413  2 -0.9500 17.474803327 14.676196673  7.452500000
   414  2 -0.9500 14.676196673 17.474803327  1.490500000
   415  2 -0.9500 15.178303327 19.771303327  8.943000000
   416  2 -0.9500 14.676196673 22.067803327 13.414500000
   417  2 -0.9500 19.269196673  8.288803327  7.452500000
   418  2 -0.9500 21.565696673  7.786696673  2.981000000
   419  2 -0.9500 19.771303327  5.992303327  2.981000000
   420  2 -0.9500 22.067803327  5.490196673  4.471500000
   421  2 -0.9500 19.269196673  8.288803327  4.471500000
   422  2 -0.9500 21.565696673  7.786696673  0.000000000
   423  2 -0.9500 19.771303327  5.992303327  0.000000000
   424  2 -0.9500 22.067803327  5.490196673  1.490500000
   425  2 -0.9500 19.269196673  8.288803327  1.490500000
   426  2 -0.9500 21.565696673  3.193696673 11.924000000
   427  2 -0.9500 19.771303327  1.399303327 11.924000000
   428  2 -0.9500 22.067803327  0.897196673 13.414500000
   429  2 -0.9500 19.269196673  3.695803327 13.414500000
   430  2 -0.9500 21.565696673  3.193696673  8.943000000
   431  2 -0.9500 19.771303327  1.399303327  8.943000000
   432  2 -0.9500 22.067803327  0.897196673 10.433500000
   433  2 -0.9500 19.269196673  3.695803327 10.433500000
   434  2 -0.9500 17.474803327 19.269196673 13.414500000
   435  2 -0.9500 15.178303327 19.771303327 11.924000000
   436  2 -0.9500 19.269196673  3.695803327  1.490500000
   437  2 -0.9500 22.067803327  0.897196673  1.490500000
   438  2 -0.9500 19.771303327  1.399303327  0.000000000
   439  2 -0.9500 21.565696673  3.193696673  0.000000000
   440  2 -0.9500 16.972696673 21.565696673  8.943000000
   441  2 -0.9500 19.269196673  3.695803327  4.471500000
   442  2 -0.9500 19.771303327  1.399303327  2.981000000
   443  2 -0.9500 21.565696673  3.193696673  2.981000000
   444  2 -0.9500 19.269196673  3.695803327  7.452500000
   445  2 -0.9500 22.067803327  0.897196673  7.452500000
   446  2 -0.9500 19.771303327  1.399303327  5.962000000
   447  2 -0.9500 21.565696673  3.193696673  5.962000000
   448  2 -0.9500 22.067803327  0.897196673  4.471500000
   449  2 -0.9500 12.379696673 21.565696673 11.924000000
   450  2 -0.9500 10.083196673 12.881803327  7.452500000
   451  2 -0.9500 12.881803327 19.269196673 13.414500000
   452  2 -0.9500  1.399303327 19.771303327  8.943000000
   453  2 -0.9500  3.193696673 21.565696673  8.943000000
   454  2 -0.9500  0.897196673 22.067803327 13.414500000
   455  2 -0.9500  3.695803327 19.269196673 13.414500000
   456  2 -0.9500  1.399303327 19.771303327 11.924000000
   457  2 -0.9500  3.193696673 21.565696673 11.924000000
   458  2 -0.9500  3.695803327 19.269196673 10.433500000
   459  2 -0.9500  5.490196673  3.695803327  1.490500000
   460  2 -0.9500  5.992303327  1.399303327  0.000000000
   461  2 -0.9500  7.786696673  3.193696673  0.000000000
   462  2 -0.9500  5.490196673  3.695803327  4.471500000
   463  2 -0.9500  8.288803327  0.897196673  4.471500000
   464  2 -0.9500  5.992303327  1.399303327  2.981000000
   465  2 -0.9500  7.786696673  3.193696673  2.981000000
   466  2 -0.9500  8.288803327  0.897196673  1.490500000
   467  2 -0.9500  0.897196673 22.067803327 10.433500000
   468  2 -0.9500  3.193696673 21.565696673  5.962000000
   469  2 -0.9500  1.399303327 19.771303327  5.962000000
   470  2 -0.9500  3.193696673 16.972696673  8.943000000
   471  2 -0.9500  0.897196673 17.474803327 13.414500000
   472  2 -0.9500  3.695803327 14.676196673 13.414500000
   473  2 -0.9500  1.399303327 15.178303327 11.924000000
   474  2 -0.9500  3.193696673 16.972696673 11.924000000
   475  2 -0.9500  0.897196673 22.067803327  1.490500000
   476  2 -0.9500  3.695803327 19.269196673  1.490500000
   477  2 -0.9500  1.399303327 19.771303327  0.000000000
   478  2 -0.9500  3.193696673 21.565696673  0.000000000
   479  2 -0.9500  0.897196673 22.067803327  4.471500000
   480  2 -0.9500  3.695803327 19.269196673  4.471500000
   481  2 -0.9500  1.399303327 19.771303327  2.981000000
   482  2 -0.9500  3.193696673 21.565696673  2.981000000
   483  2 -0.9500  0.897196673 22.067803327  7.452500000
   484  2 -0.9500  3.695803327 19.269196673  7.452500000
   485  2 -0.9500  5.490196673  3.695803327  7.452500000
   486  2 -0.9500  8.288803327  0.897196673  7.452500000
   487  2 -0.9500  5.992303327  1.399303327  5.962000000
   488  2 -0.9500  7.786696673  3.193696673  5.962000000
   489  2 -0.9500  7.786696673  7.786696673  5.962000000
   490  2 -0.9500  5.490196673  8.288803327 10.433500000
   491  2 -0.9500  8.288803327  5.490196673 10.433500000
   492  2 -0.9500  5.992303327  5.992303327  8.943000000
   493  2 -0.9500  7.786696673  7.786696673  8.943000000
   494  2 -0.9500  5.490196673  8.288803327 13.414500000
   495  2 -0.9500  8.288803327  5.490196673 13.414500000
   496  2 -0.9500  5.992303327  5.992303327 11.924000000
   497  2 -0.9500  7.786696673  7.786696673 11.924000000
   498  2 -0.9500  5.490196673 12.881803327  1.490500000
   499  2 -0.9500  8.288803327 10.083196673  1.490500000
   500  2 -0.9500  5.992303327 10.585303327  0.000000000
   501  2 -0.9500  7.786696673 12.379696673  0.000000000
   502  2 -0.9500  5.490196673 12.881803327  4.471500000
   503  2 -0.9500  8.288803327 10.083196673  4.471500000
   504  2 -0.9500  5.992303327  5.992303327  5.962000000
   505  2 -0.9500  1.399303327 15.178303327  8.943000000
   506  2 -0.9500  8.288803327  5.490196673  7.452500000
   507  2 -0.9500  7.786696673  7.786696673  2.981000000
   508  2 -0.9500  5.490196673  3.695803327 10.433500000
   509  2 -0.9500  8.288803327  0.897196673 10.433500000
   510  2 -0.9500  5.992303327  1.399303327  8.943000000
   511  2 -0.9500  7.786696673  3.193696673  8.943000000
   512  2 -0.9500  5.490196673  3.695803327 13.414500000
   513  2 -0.9500  8.288803327  0.897196673 13.414500000
   514  2 -0.9500  5.992303327  1.399303327 11.924000000
   515  2 -0.9500  7.786696673  3.193696673 11.924000000
   516  2 -0.9500  5.490196673  8.288803327  1.490500000
   517  2 -0.9500  8.288803327  5.490196673  1.490500000
   518  2 -0.9500  5.992303327  5.992303327  0.000000000
   519  2 -0.9500  7.786696673  7.786696673  0.000000000
   520  2 -0.9500  5.490196673  8.288803327  4.471500000
   521  2 -0.9500  8.288803327  5.490196673  4.471500000
   522  2 -0.9500  5.992303327  5.992303327  2.981000000
   523  2 -0.9500  5.490196673  8.288803327  7.452500000