# harmonic 2d perovskite

4800 atoms
6400 bonds

2 atom types
1 bond types

0 40.000 xlo xhi
0 40.000 ylo yhi
-1 1 zlo zhi

Atoms

  1 0    1  0.000 0.000 0.0
  2 0    2  0.500 0.000 0.0
  3 0    2  0.000 0.500 0.0
  4 0    1  0.000 1.000 0.0
  5 0    2  0.500 1.000 0.0
  6 0    2  0.000 1.500 0.0
  7 0    1  0.000 2.000 0.0
  8 0    2  0.500 2.000 0.0
  9 0    2  0.000 2.500 0.0
 10 0    1  0.000 3.000 0.0
 11 0    2  0.500 3.000 0.0
 12 0    2  0.000 3.500 0.0
 13 0    1  0.000 4.000 0.0
 14 0    2  0.500 4.000 0.0
 15 0    2  0.000 4.500 0.0
 16 0    1  0.000 5.000 0.0
 17 0    2  0.500 5.000 0.0
 18 0    2  0.000 5.500 0.0
 19 0    1  0.000 6.000 0.0
 20 0    2  0.500 6.000 0.0
 21 0    2  0.000 6.500 0.0
 22 0    1  0.000 7.000 0.0
 23 0    2  0.500 7.000 0.0
 24 0    2  0.000 7.500 0.0
 25 0    1  0.000 8.000 0.0
 26 0    2  0.500 8.000 0.0
 27 0    2  0.000 8.500 0.0
 28 0    1  0.000 9.000 0.0
 29 0    2  0.500 9.000 0.0
 30 0    2  0.000 9.500 0.0
 31 0    1  0.000 10.000 0.0
 32 0    2  0.500 10.000 0.0
 33 0    2  0.000 10.500 0.0
 34 0    1  0.000 11.000 0.0
 35 0    2  0.500 11.000 0.0
 36 0    2  0.000 11.500 0.0
 37 0    1  0.000 12.000 0.0
 38 0    2  0.500 12.000 0.0
 39 0    2  0.000 12.500 0.0
 40 0    1  0.000 13.000 0.0
 41 0    2  0.500 13.000 0.0
 42 0    2  0.000 13.500 0.0
 43 0    1  0.000 14.000 0.0
 44 0    2  0.500 14.000 0.0
 45 0    2  0.000 14.500 0.0
 46 0    1  0.000 15.000 0.0
 47 0    2  0.500 15.000 0.0
 48 0    2  0.000 15.500 0.0
 49 0    1  0.000 16.000 0.0
 50 0    2  0.500 16.000 0.0
 51 0    2  0.000 16.500 0.0
 52 0    1  0.000 17.000 0.0
 53 0    2  0.500 17.000 0.0
 54 0    2  0.000 17.500 0.0
 55 0    1  0.000 18.000 0.0
 56 0    2  0.500 18.000 0.0
 57 0    2  0.000 18.500 0.0
 58 0    1  0.000 19.000 0.0
 59 0    2  0.500 19.000 0.0
 60 0    2  0.000 19.500 0.0
 61 0    1  0.000 20.000 0.0
 62 0    2  0.500 20.000 0.0
 63 0    2  0.000 20.500 0.0
 64 0    1  0.000 21.000 0.0
 65 0    2  0.500 21.000 0.0
 66 0    2  0.000 21.500 0.0
 67 0    1  0.000 22.000 0.0
 68 0    2  0.500 22.000 0.0
 69 0    2  0.000 22.500 0.0
 70 0    1  0.000 23.000 0.0
 71 0    2  0.500 23.000 0.0
 72 0    2  0.000 23.500 0.0
 73 0    1  0.000 24.000 0.0
 74 0    2  0.500 24.000 0.0
 75 0    2  0.000 24.500 0.0
 76 0    1  0.000 25.000 0.0
 77 0    2  0.500 25.000 0.0
 78 0    2  0.000 25.500 0.0
 79 0    1  0.000 26.000 0.0
 80 0    2  0.500 26.000 0.0
 81 0    2  0.000 26.500 0.0
 82 0    1  0.000 27.000 0.0
 83 0    2  0.500 27.000 0.0
 84 0    2  0.000 27.500 0.0
 85 0    1  0.000 28.000 0.0
 86 0    2  0.500 28.000 0.0
 87 0    2  0.000 28.500 0.0
 88 0    1  0.000 29.000 0.0
 89 0    2  0.500 29.000 0.0
 90 0    2  0.000 29.500 0.0
 91 0    1  0.000 30.000 0.0
 92 0    2  0.500 30.000 0.0
 93 0    2  0.000 30.500 0.0
 94 0    1  0.000 31.000 0.0
 95 0    2  0.500 31.000 0.0
 96 0    2  0.000 31.500 0.0
 97 0    1  0.000 32.000 0.0
 98 0    2  0.500 32.000 0.0
 99 0    2  0.000 32.500 0.0
100 0    1  0.000 33.000 0.0
101 0    2  0.500 33.000 0.0
102 0    2  0.000 33.500 0.0
103 0    1  0.000 34.000 0.0
104 0    2  0.500 34.000 0.0
105 0    2  0.000 34.500 0.0
106 0    1  0.000 35.000 0.0
107 0    2  0.500 35.000 0.0
108 0    2  0.000 35.500 0.0
109 0    1  0.000 36.000 0.0
110 0    2  0.500 36.000 0.0
111 0    2  0.000 36.500 0.0
112 0    1  0.000 37.000 0.0
113 0    2  0.500 37.000 0.0
114 0    2  0.000 37.500 0.0
115 0    1  0.000 38.000 0.0
116 0    2  0.500 38.000 0.0
117 0    2  0.000 38.500 0.0
118 0    1  0.000 39.000 0.0
119 0    2  0.500 39.000 0.0
120 0    2  0.000 39.500 0.0
121 0    1  1.000 0.000 0.0
122 0    2  1.500 0.000 0.0
123 0    2  1.000 0.500 0.0
124 0    1  1.000 1.000 0.0
125 0    2  1.500 1.000 0.0
126 0    2  1.000 1.500 0.0
127 0    1  1.000 2.000 0.0
128 0    2  1.500 2.000 0.0
129 0    2  1.000 2.500 0.0
130 0    1  1.000 3.000 0.0
131 0    2  1.500 3.000 0.0
132 0    2  1.000 3.500 0.0
133 0    1  1.000 4.000 0.0
134 0    2  1.500 4.000 0.0
135 0    2  1.000 4.500 0.0
136 0    1  1.000 5.000 0.0
137 0    2  1.500 5.000 0.0
138 0    2  1.000 5.500 0.0
139 0    1  1.000 6.000 0.0
140 0    2  1.500 6.000 0.0
141 0    2  1.000 6.500 0.0
142 0    1  1.000 7.000 0.0
143 0    2  1.500 7.000 0.0
144 0    2  1.000 7.500 0.0
145 0    1  1.000 8.000 0.0
146 0    2  1.500 8.000 0.0
147 0    2  1.000 8.500 0.0
148 0    1  1.000 9.000 0.0
149 0    2  1.500 9.000 0.0
150 0    2  1.000 9.500 0.0
151 0    1  1.000 10.000 0.0
152 0    2  1.500 10.000 0.0
153 0    2  1.000 10.500 0.0
154 0    1  1.000 11.000 0.0
155 0    2  1.500 11.000 0.0
156 0    2  1.000 11.500 0.0
157 0    1  1.000 12.000 0.0
158 0    2  1.500 12.000 0.0
159 0    2  1.000 12.500 0.0
160 0    1  1.000 13.000 0.0
161 0    2  1.500 13.000 0.0
162 0    2  1.000 13.500 0.0
163 0    1  1.000 14.000 0.0
164 0    2  1.500 14.000 0.0
165 0    2  1.000 14.500 0.0
166 0    1  1.000 15.000 0.0
167 0    2  1.500 15.000 0.0
168 0    2  1.000 15.500 0.0
169 0    1  1.000 16.000 0.0
170 0    2  1.500 16.000 0.0
171 0    2  1.000 16.500 0.0
172 0    1  1.000 17.000 0.0
173 0    2  1.500 17.000 0.0
174 0    2  1.000 17.500 0.0
175 0    1  1.000 18.000 0.0
176 0    2  1.500 18.000 0.0
177 0    2  1.000 18.500 0.0
178 0    1  1.000 19.000 0.0
179 0    2  1.500 19.000 0.0
180 0    2  1.000 19.500 0.0
181 0    1  1.000 20.000 0.0
182 0    2  1.500 20.000 0.0
183 0    2  1.000 20.500 0.0
184 0    1  1.000 21.000 0.0
185 0    2  1.500 21.000 0.0
186 0    2  1.000 21.500 0.0
187 0    1  1.000 22.000 0.0
188 0    2  1.500 22.000 0.0
189 0    2  1.000 22.500 0.0
190 0    1  1.000 23.000 0.0
191 0    2  1.500 23.000 0.0
192 0    2  1.000 23.500 0.0
193 0    1  1.000 24.000 0.0
194 0    2  1.500 24.000 0.0
195 0    2  1.000 24.500 0.0
196 0    1  1.000 25.000 0.0
197 0    2  1.500 25.000 0.0
198 0    2  1.000 25.500 0.0
199 0    1  1.000 26.000 0.0
200 0    2  1.500 26.000 0.0
201 0    2  1.000 26.500 0.0
202 0    1  1.000 27.000 0.0
203 0    2  1.500 27.000 0.0
204 0    2  1.000 27.500 0.0
205 0    1  1.000 28.000 0.0
206 0    2  1.500 28.000 0.0
207 0    2  1.000 28.500 0.0
208 0    1  1.000 29.000 0.0
209 0    2  1.500 29.000 0.0
210 0    2  1.000 29.500 0.0
211 0    1  1.000 30.000 0.0
212 0    2  1.500 30.000 0.0
213 0    2  1.000 30.500 0.0
214 0    1  1.000 31.000 0.0
215 0    2  1.500 31.000 0.0
216 0    2  1.000 31.500 0.0
217 0    1  1.000 32.000 0.0
218 0    2  1.500 32.000 0.0
219 0    2  1.000 32.500 0.0
220 0    1  1.000 33.000 0.0
221 0    2  1.500 33.000 0.0
222 0    2  1.000 33.500 0.0
223 0    1  1.000 34.000 0.0
224 0    2  1.500 34.000 0.0
225 0    2  1.000 34.500 0.0
226 0    1  1.000 35.000 0.0
227 0    2  1.500 35.000 0.0
228 0    2  1.000 35.500 0.0
229 0    1  1.000 36.000 0.0
230 0    2  1.500 36.000 0.0
231 0    2  1.000 36.500 0.0
232 0    1  1.000 37.000 0.0
233 0    2  1.500 37.000 0.0
234 0    2  1.000 37.500 0.0
235 0    1  1.000 38.000 0.0
236 0    2  1.500 38.000 0.0
237 0    2  1.000 38.500 0.0
238 0    1  1.000 39.000 0.0
239 0    2  1.500 39.000 0.0
240 0    2  1.000 39.500 0.0
241 0    1  2.000 0.000 0.0
242 0    2  2.500 0.000 0.0
243 0    2  2.000 0.500 0.0
244 0    1  2.000 1.000 0.0
245 0    2  2.500 1.000 0.0
246 0    2  2.000 1.500 0.0
247 0    1  2.000 2.000 0.0
248 0    2  2.500 2.000 0.0
249 0    2  2.000 2.500 0.0
250 0    1  2.000 3.000 0.0
251 0    2  2.500 3.000 0.0
252 0    2  2.000 3.500 0.0
253 0    1  2.000 4.000 0.0
254 0    2  2.500 4.000 0.0
255 0    2  2.000 4.500 0.0
256 0    1  2.000 5.000 0.0
257 0    2  2.500 5.000 0.0
258 0    2  2.000 5.500 0.0
259 0    1  2.000 6.000 0.0
260 0    2  2.500 6.000 0.0
261 0    2  2.000 6.500 0.0
262 0    1  2.000 7.000 0.0
263 0    2  2.500 7.000 0.0
264 0    2  2.000 7.500 0.0
265 0    1  2.000 8.000 0.0
266 0    2  2.500 8.000 0.0
267 0    2  2.000 8.500 0.0
268 0    1  2.000 9.000 0.0
269 0    2  2.500 9.000 0.0
270 0    2  2.000 9.500 0.0
271 0    1  2.000 10.000 0.0
272 0    2  2.500 10.000 0.0
273 0    2  2.000 10.500 0.0
274 0    1  2.000 11.000 0.0
275 0    2  2.500 11.000 0.0
276 0    2  2.000 11.500 0.0
277 0    1  2.000 12.000 0.0
278 0    2  2.500 12.000 0.0
279 0    2  2.000 12.500 0.0
280 0    1  2.000 13.000 0.0
281 0    2  2.500 13.000 0.0
282 0    2  2.000 13.500 0.0
283 0    1  2.000 14.000 0.0
284 0    2  2.500 14.000 0.0
285 0    2  2.000 14.500 0.0
286 0    1  2.000 15.000 0.0
287 0    2  2.500 15.000 0.0
288 0    2  2.000 15.500 0.0
289 0    1  2.000 16.000 0.0
290 0    2  2.500 16.000 0.0
291 0    2  2.000 16.500 0.0
292 0    1  2.000 17.000 0.0
293 0    2  2.500 17.000 0.0
294 0    2  2.000 17.500 0.0
295 0    1  2.000 18.000 0.0
296 0    2  2.500 18.000 0.0
297 0    2  2.000 18.500 0.0
298 0    1  2.000 19.000 0.0
299 0    2  2.500 19.000 0.0
300 0    2  2.000 19.500 0.0
301 0    1  2.000 20.000 0.0
302 0    2  2.500 20.000 0.0
303 0    2  2.000 20.500 0.0
304 0    1  2.000 21.000 0.0
305 0    2  2.500 21.000 0.0
306 0    2  2.000 21.500 0.0
307 0    1  2.000 22.000 0.0
308 0    2  2.500 22.000 0.0
309 0    2  2.000 22.500 0.0
310 0    1  2.000 23.000 0.0
311 0    2  2.500 23.000 0.0
312 0    2  2.000 23.500 0.0
313 0    1  2.000 24.000 0.0
314 0    2  2.500 24.000 0.0
315 0    2  2.000 24.500 0.0
316 0    1  2.000 25.000 0.0
317 0    2  2.500 25.000 0.0
318 0    2  2.000 25.500 0.0
319 0    1  2.000 26.000 0.0
320 0    2  2.500 26.000 0.0
321 0    2  2.000 26.500 0.0
322 0    1  2.000 27.000 0.0
323 0    2  2.500 27.000 0.0
324 0    2  2.000 27.500 0.0
325 0    1  2.000 28.000 0.0
326 0    2  2.500 28.000 0.0
327 0    2  2.000 28.500 0.0
328 0    1  2.000 29.000 0.0
329 0    2  2.500 29.000 0.0
330 0    2  2.000 29.500 0.0
331 0    1  2.000 30.000 0.0
332 0    2  2.500 30.000 0.0
333 0    2  2.000 30.500 0.0
334 0    1  2.000 31.000 0.0
335 0    2  2.500 31.000 0.0
336 0    2  2.000 31.500 0.0
337 0    1  2.000 32.000 0.0
338 0    2  2.500 32.000 0.0
339 0    2  2.000 32.500 0.0
340 0    1  2.000 33.000 0.0
341 0    2  2.500 33.000 0.0
342 0    2  2.000 33.500 0.0
343 0    1  2.000 34.000 0.0
344 0    2  2.500 34.000 0.0
345 0    2  2.000 34.500 0.0
346 0    1  2.000 35.000 0.0
347 0    2  2.500 35.000 0.0
348 0    2  2.000 35.500 0.0
349 0    1  2.000 36.000 0.0
350 0    2  2.500 36.000 0.0
351 0    2  2.000 36.500 0.0
352 0    1  2.000 37.000 0.0
353 0    2  2.500 37.000 0.0
354 0    2  2.000 37.500 0.0
355 0    1  2.000 38.000 0.0
356 0    2  2.500 38.000 0.0
357 0    2  2.000 38.500 0.0
358 0    1  2.000 39.000 0.0
359 0    2  2.500 39.000 0.0
360 0    2  2.000 39.500 0.0
361 0    1  3.000 0.000 0.0
362 0    2  3.500 0.000 0.0
363 0    2  3.000 0.500 0.0
364 0    1  3.000 1.000 0.0
365 0    2  3.500 1.000 0.0
366 0    2  3.000 1.500 0.0
367 0    1  3.000 2.000 0.0
368 0    2  3.500 2.000 0.0
369 0    2  3.000 2.500 0.0
370 0    1  3.000 3.000 0.0
371 0    2  3.500 3.000 0.0
372 0    2  3.000 3.500 0.0
373 0    1  3.000 4.000 0.0
374 0    2  3.500 4.000 0.0
375 0    2  3.000 4.500 0.0
376 0    1  3.000 5.000 0.0
377 0    2  3.500 5.000 0.0
378 0    2  3.000 5.500 0.0
379 0    1  3.000 6.000 0.0
380 0    2  3.500 6.000 0.0
381 0    2  3.000 6.500 0.0
382 0    1  3.000 7.000 0.0
383 0    2  3.500 7.000 0.0
384 0    2  3.000 7.500 0.0
385 0    1  3.000 8.000 0.0
386 0    2  3.500 8.000 0.0
387 0    2  3.000 8.500 0.0
388 0    1  3.000 9.000 0.0
389 0    2  3.500 9.000 0.0
390 0    2  3.000 9.500 0.0
391 0    1  3.000 10.000 0.0
392 0    2  3.500 10.000 0.0
393 0    2  3.000 10.500 0.0
394 0    1  3.000 11.000 0.0
395 0    2  3.500 11.000 0.0
396 0    2  3.000 11.500 0.0
397 0    1  3.000 12.000 0.0
398 0    2  3.500 12.000 0.0
399 0    2  3.000 12.500 0.0
400 0    1  3.000 13.000 0.0
401 0    2  3.500 13.000 0.0
402 0    2  3.000 13.500 0.0
403 0    1  3.000 14.000 0.0
404 0    2  3.500 14.000 0.0
405 0    2  3.000 14.500 0.0
406 0    1  3.000 15.000 0.0
407 0    2  3.500 15.000 0.0
408 0    2  3.000 15.500 0.0
409 0    1  3.000 16.000 0.0
410 0    2  3.500 16.000 0.0
411 0    2  3.000 16.500 0.0
412 0    1  3.000 17.000 0.0
413 0    2  3.500 17.000 0.0
414 0    2  3.000 17.500 0.0
415 0    1  3.000 18.000 0.0
416 0    2  3.500 18.000 0.0
417 0    2  3.000 18.500 0.0
418 0    1  3.000 19.000 0.0
419 0    2  3.500 19.000 0.0
420 0    2  3.000 19.500 0.0
421 0    1  3.000 20.000 0.0
422 0    2  3.500 20.000 0.0
423 0    2  3.000 20.500 0.0
424 0    1  3.000 21.000 0.0
425 0    2  3.500 21.000 0.0
426 0    2  3.000 21.500 0.0
427 0    1  3.000 22.000 0.0
428 0    2  3.500 22.000 0.0
429 0    2  3.000 22.500 0.0
430 0    1  3.000 23.000 0.0
431 0    2  3.500 23.000 0.0
432 0    2  3.000 23.500 0.0
433 0    1  3.000 24.000 0.0
434 0    2  3.500 24.000 0.0
435 0    2  3.000 24.500 0.0
436 0    1  3.000 25.000 0.0
437 0    2  3.500 25.000 0.0
438 0    2  3.000 25.500 0.0
439 0    1  3.000 26.000 0.0
440 0    2  3.500 26.000 0.0
441 0    2  3.000 26.500 0.0
442 0    1  3.000 27.000 0.0
443 0    2  3.500 27.000 0.0
444 0    2  3.000 27.500 0.0
445 0    1  3.000 28.000 0.0
446 0    2  3.500 28.000 0.0
447 0    2  3.000 28.500 0.0
448 0    1  3.000 29.000 0.0
449 0    2  3.500 29.000 0.0
450 0    2  3.000 29.500 0.0
451 0    1  3.000 30.000 0.0
452 0    2  3.500 30.000 0.0
453 0    2  3.000 30.500 0.0
454 0    1  3.000 31.000 0.0
455 0    2  3.500 31.000 0.0
456 0    2  3.000 31.500 0.0
457 0    1  3.000 32.000 0.0
458 0    2  3.500 32.000 0.0
459 0    2  3.000 32.500 0.0
460 0    1  3.000 33.000 0.0
461 0    2  3.500 33.000 0.0
462 0    2  3.000 33.500 0.0
463 0    1  3.000 34.000 0.0
464 0    2  3.500 34.000 0.0
465 0    2  3.000 34.500 0.0
466 0    1  3.000 35.000 0.0
467 0    2  3.500 35.000 0.0
468 0    2  3.000 35.500 0.0
469 0    1  3.000 36.000 0.0
470 0    2  3.500 36.000 0.0
471 0    2  3.000 36.500 0.0
472 0    1  3.000 37.000 0.0
473 0    2  3.500 37.000 0.0
474 0    2  3.000 37.500 0.0
475 0    1  3.000 38.000 0.0
476 0    2  3.500 38.000 0.0
477 0    2  3.000 38.500 0.0
478 0    1  3.000 39.000 0.0
479 0    2  3.500 39.000 0.0
480 0    2  3.000 39.500 0.0
481 0    1  4.000 0.000 0.0
482 0    2  4.500 0.000 0.0
483 0    2  4.000 0.500 0.0
484 0    1  4.000 1.000 0.0
485 0    2  4.500 1.000 0.0
486 0    2  4.000 1.500 0.0
487 0    1  4.000 2.000 0.0
488 0    2  4.500 2.000 0.0
489 0    2  4.000 2.500 0.0
490 0    1  4.000 3.000 0.0
491 0    2  4.500 3.000 0.0
492 0    2  4.000 3.500 0.0
493 0    1  4.000 4.000 0.0
494 0    2  4.500 4.000 0.0
495 0    2  4.000 4.500 0.0
496 0    1  4.000 5.000 0.0
497 0    2  4.500 5.000 0.0
498 0    2  4.000 5.500 0.0
499 0    1  4.000 6.000 0.0
500 0    2  4.500 6.000 0.0
501 0    2  4.000 6.500 0.0
502 0    1  4.000 7.000 0.0
503 0    2  4.500 7.000 0.0
504 0    2  4.000 7.500 0.0
505 0    1  4.000 8.000 0.0
506 0    2  4.500 8.000 0.0
507 0    2  4.000 8.500 0.0
508 0    1  4.000 9.000 0.0
509 0    2  4.500 9.000 0.0
510 0    2  4.000 9.500 0.0
511 0    1  4.000 10.000 0.0
512 0    2  4.500 10.000 0.0
513 0    2  4.000 10.500 0.0
514 0    1  4.000 11.000 0.0
515 0    2  4.500 11.000 0.0
516 0    2  4.000 11.500 0.0
517 0    1  4.000 12.000 0.0
518 0    2  4.500 12.000 0.0
519 0    2  4.000 12.500 0.0
520 0    1  4.000 13.000 0.0
521 0    2  4.500 13.000 0.0
522 0    2  4.000 13.500 0.0
523 0    1  4.000 14.000 0.0
524 0    2  4.500 14.000 0.0
525 0    2  4.000 14.500 0.0
526 0    1  4.000 15.000 0.0
527 0    2  4.500 15.000 0.0
528 0    2  4.000 15.500 0.0
529 0    1  4.000 16.000 0.0
530 0    2  4.500 16.000 0.0
531 0    2  4.000 16.500 0.0
532 0    1  4.000 17.000 0.0
533 0    2  4.500 17.000 0.0
534 0    2  4.000 17.500 0.0
535 0    1  4.000 18.000 0.0
536 0    2  4.500 18.000 0.0
537 0    2  4.000 18.500 0.0
538 0    1  4.000 19.000 0.0
539 0    2  4.500 19.000 0.0
540 0    2  4.000 19.500 0.0
541 0    1  4.000 20.000 0.0
542 0    2  4.500 20.000 0.0
543 0    2  4.000 20.500 0.0
544 0    1  4.000 21.000 0.0
545 0    2  4.500 21.000 0.0
546 0    2  4.000 21.500 0.0
547 0    1  4.000 22.000 0.0
548 0    2  4.500 22.000 0.0
549 0    2  4.000 22.500 0.0
550 0    1  4.000 23.000 0.0
551 0    2  4.500 23.000 0.0
552 0    2  4.000 23.500 0.0
553 0    1  4.000 24.000 0.0
554 0    2  4.500 24.000 0.0
555 0    2  4.000 24.500 0.0
556 0    1  4.000 25.000 0.0
557 0    2  4.500 25.000 0.0
558 0    2  4.000 25.500 0.0
559 0    1  4.000 26.000 0.0
560 0    2  4.500 26.000 0.0
561 0    2  4.000 26.500 0.0
562 0    1  4.000 27.000 0.0
563 0    2  4.500 27.000 0.0
564 0    2  4.000 27.500 0.0
565 0    1  4.000 28.000 0.0
566 0    2  4.500 28.000 0.0
567 0    2  4.000 28.500 0.0
568 0    1  4.000 29.000 0.0
569 0    2  4.500 29.000 0.0
570 0    2  4.000 29.500 0.0
571 0    1  4.000 30.000 0.0
572 0    2  4.500 30.000 0.0
573 0    2  4.000 30.500 0.0
574 0    1  4.000 31.000 0.0
575 0    2  4.500 31.000 0.0
576 0    2  4.000 31.500 0.0
577 0    1  4.000 32.000 0.0
578 0    2  4.500 32.000 0.0
579 0    2  4.000 32.500 0.0
580 0    1  4.000 33.000 0.0
581 0    2  4.500 33.000 0.0
582 0    2  4.000 33.500 0.0
583 0    1  4.000 34.000 0.0
584 0    2  4.500 34.000 0.0
585 0    2  4.000 34.500 0.0
586 0    1  4.000 35.000 0.0
587 0    2  4.500 35.000 0.0
588 0    2  4.000 35.500 0.0
589 0    1  4.000 36.000 0.0
590 0    2  4.500 36.000 0.0
591 0    2  4.000 36.500 0.0
592 0    1  4.000 37.000 0.0
593 0    2  4.500 37.000 0.0
594 0    2  4.000 37.500 0.0
595 0    1  4.000 38.000 0.0
596 0    2  4.500 38.000 0.0
597 0    2  4.000 38.500 0.0
598 0    1  4.000 39.000 0.0
599 0    2  4.500 39.000 0.0
600 0    2  4.000 39.500 0.0
601 0    1  5.000 0.000 0.0
602 0    2  5.500 0.000 0.0
603 0    2  5.000 0.500 0.0
604 0    1  5.000 1.000 0.0
605 0    2  5.500 1.000 0.0
606 0    2  5.000 1.500 0.0
607 0    1  5.000 2.000 0.0
608 0    2  5.500 2.000 0.0
609 0    2  5.000 2.500 0.0
610 0    1  5.000 3.000 0.0
611 0    2  5.500 3.000 0.0
612 0    2  5.000 3.500 0.0
613 0    1  5.000 4.000 0.0
614 0    2  5.500 4.000 0.0
615 0    2  5.000 4.500 0.0
616 0    1  5.000 5.000 0.0
617 0    2  5.500 5.000 0.0
618 0    2  5.000 5.500 0.0
619 0    1  5.000 6.000 0.0
620 0    2  5.500 6.000 0.0
621 0    2  5.000 6.500 0.0
622 0    1  5.000 7.000 0.0
623 0    2  5.500 7.000 0.0
624 0    2  5.000 7.500 0.0
625 0    1  5.000 8.000 0.0
626 0    2  5.500 8.000 0.0
627 0    2  5.000 8.500 0.0
628 0    1  5.000 9.000 0.0
629 0    2  5.500 9.000 0.0
630 0    2  5.000 9.500 0.0
631 0    1  5.000 10.000 0.0
632 0    2  5.500 10.000 0.0
633 0    2  5.000 10.500 0.0
634 0    1  5.000 11.000 0.0
635 0    2  5.500 11.000 0.0
636 0    2  5.000 11.500 0.0
637 0    1  5.000 12.000 0.0
638 0    2  5.500 12.000 0.0
639 0    2  5.000 12.500 0.0
640 0    1  5.000 13.000 0.0
641 0    2  5.500 13.000 0.0
642 0    2  5.000 13.500 0.0
643 0    1  5.000 14.000 0.0
644 0    2  5.500 14.000 0.0
645 0    2  5.000 14.500 0.0
646 0    1  5.000 15.000 0.0
647 0    2  5.500 15.000 0.0
648 0    2  5.000 15.500 0.0
649 0    1  5.000 16.000 0.0
650 0    2  5.500 16.000 0.0
651 0    2  5.000 16.500 0.0
652 0    1  5.000 17.000 0.0
653 0    2  5.500 17.000 0.0
654 0    2  5.000 17.500 0.0
655 0    1  5.000 18.000 0.0
656 0    2  5.500 18.000 0.0
657 0    2  5.000 18.500 0.0
658 0    1  5.000 19.000 0.0
659 0    2  5.500 19.000 0.0
660 0    2  5.000 19.500 0.0
661 0    1  5.000 20.000 0.0
662 0    2  5.500 20.000 0.0
663 0    2  5.000 20.500 0.0
664 0    1  5.000 21.000 0.0
665 0    2  5.500 21.000 0.0
666 0    2  5.000 21.500 0.0
667 0    1  5.000 22.000 0.0
668 0    2  5.500 22.000 0.0
669 0    2  5.000 22.500 0.0
670 0    1  5.000 23.000 0.0
671 0    2  5.500 23.000 0.0
672 0    2  5.000 23.500 0.0
673 0    1  5.000 24.000 0.0
674 0    2  5.500 24.000 0.0
675 0    2  5.000 24.500 0.0
676 0    1  5.000 25.000 0.0
677 0    2  5.500 25.000 0.0
678 0    2  5.000 25.500 0.0
679 0    1  5.000 26.000 0.0
680 0    2  5.500 26.000 0.0
681 0    2  5.000 26.500 0.0
682 0    1  5.000 27.000 0.0
683 0    2  5.500 27.000 0.0
684 0    2  5.000 27.500 0.0
685 0    1  5.000 28.000 0.0
686 0    2  5.500 28.000 0.0
687 0    2  5.000 28.500 0.0
688 0    1  5.000 29.000 0.0
689 0    2  5.500 29.000 0.0
690 0    2  5.000 29.500 0.0
691 0    1  5.000 30.000 0.0
692 0    2  5.500 30.000 0.0
693 0    2  5.000 30.500 0.0
694 0    1  5.000 31.000 0.0
695 0    2  5.500 31.000 0.0
696 0    2  5.000 31.500 0.0
697 0    1  5.000 32.000 0.0
698 0    2  5.500 32.000 0.0
699 0    2  5.000 32.500 0.0
700 0    1  5.000 33.000 0.0
701 0    2  5.500 33.000 0.0
702 0    2  5.000 33.500 0.0
703 0    1  5.000 34.000 0.0
704 0    2  5.500 34.000 0.0
705 0    2  5.000 34.500 0.0
706 0    1  5.000 35.000 0.0
707 0    2  5.500 35.000 0.0
708 0    2  5.000 35.500 0.0
709 0    1  5.000 36.000 0.0
710 0    2  5.500 36.000 0.0
711 0    2  5.000 36.500 0.0
712 0    1  5.000 37.000 0.0
713 0    2  5.500 37.000 0.0
714 0    2  5.000 37.500 0.0
715 0    1  5.000 38.000 0.0
716 0    2  5.500 38.000 0.0
717 0    2  5.000 38.500 0.0
718 0    1  5.000 39.000 0.0
719 0    2  5.500 39.000 0.0
720 0    2  5.000 39.500 0.0
721 0    1  6.000 0.000 0.0
722 0    2  6.500 0.000 0.0
723 0    2  6.000 0.500 0.0
724 0    1  6.000 1.000 0.0
725 0    2  6.500 1.000 0.0
726 0    2  6.000 1.500 0.0
727 0    1  6.000 2.000 0.0
728 0    2  6.500 2.000 0.0
729 0    2  6.000 2.500 0.0
730 0    1  6.000 3.000 0.0
731 0    2  6.500 3.000 0.0
732 0    2  6.000 3.500 0.0
733 0    1  6.000 4.000 0.0
734 0    2  6.500 4.000 0.0
735 0    2  6.000 4.500 0.0
736 0    1  6.000 5.000 0.0
737 0    2  6.500 5.000 0.0
738 0    2  6.000 5.500 0.0
739 0    1  6.000 6.000 0.0
740 0    2  6.500 6.000 0.0
741 0    2  6.000 6.500 0.0
742 0    1  6.000 7.000 0.0
743 0    2  6.500 7.000 0.0
744 0    2  6.000 7.500 0.0
745 0    1  6.000 8.000 0.0
746 0    2  6.500 8.000 0.0
747 0    2  6.000 8.500 0.0
748 0    1  6.000 9.000 0.0
749 0    2  6.500 9.000 0.0
750 0    2  6.000 9.500 0.0
751 0    1  6.000 10.000 0.0
752 0    2  6.500 10.000 0.0
753 0    2  6.000 10.500 0.0
754 0    1  6.000 11.000 0.0
755 0    2  6.500 11.000 0.0
756 0    2  6.000 11.500 0.0
757 0    1  6.000 12.000 0.0
758 0    2  6.500 12.000 0.0
759 0    2  6.000 12.500 0.0
760 0    1  6.000 13.000 0.0
761 0    2  6.500 13.000 0.0
762 0    2  6.000 13.500 0.0
763 0    1  6.000 14.000 0.0
764 0    2  6.500 14.000 0.0
765 0    2  6.000 14.500 0.0
766 0    1  6.000 15.000 0.0
767 0    2  6.500 15.000 0.0
768 0    2  6.000 15.500 0.0
769 0    1  6.000 16.000 0.0
770 0    2  6.500 16.000 0.0
771 0    2  6.000 16.500 0.0
772 0    1  6.000 17.000 0.0
773 0    2  6.500 17.000 0.0
774 0    2  6.000 17.500 0.0
775 0    1  6.000 18.000 0.0
776 0    2  6.500 18.000 0.0
777 0    2  6.000 18.500 0.0
778 0    1  6.000 19.000 0.0
779 0    2  6.500 19.000 0.0
780 0    2  6.000 19.500 0.0
781 0    1  6.000 20.000 0.0
782 0    2  6.500 20.000 0.0
783 0    2  6.000 20.500 0.0
784 0    1  6.000 21.000 0.0
785 0    2  6.500 21.000 0.0
786 0    2  6.000 21.500 0.0
787 0    1  6.000 22.000 0.0
788 0    2  6.500 22.000 0.0
789 0    2  6.000 22.500 0.0
790 0    1  6.000 23.000 0.0
791 0    2  6.500 23.000 0.0
792 0    2  6.000 23.500 0.0
793 0    1  6.000 24.000 0.0
794 0    2  6.500 24.000 0.0
795 0    2  6.000 24.500 0.0
796 0    1  6.000 25.000 0.0
797 0    2  6.500 25.000 0.0
798 0    2  6.000 25.500 0.0
799 0    1  6.000 26.000 0.0
800 0    2  6.500 26.000 0.0
801 0    2  6.000 26.500 0.0
802 0    1  6.000 27.000 0.0
803 0    2  6.500 27.000 0.0
804 0    2  6.000 27.500 0.0
805 0    1  6.000 28.000 0.0
806 0    2  6.500 28.000 0.0
807 0    2  6.000 28.500 0.0
808 0    1  6.000 29.000 0.0
809 0    2  6.500 29.000 0.0
810 0    2  6.000 29.500 0.0
811 0    1  6.000 30.000 0.0
812 0    2  6.500 30.000 0.0
813 0    2  6.000 30.500 0.0
814 0    1  6.000 31.000 0.0
815 0    2  6.500 31.000 0.0
816 0    2  6.000 31.500 0.0
817 0    1  6.000 32.000 0.0
818 0    2  6.500 32.000 0.0
819 0    2  6.000 32.500 0.0
820 0    1  6.000 33.000 0.0
821 0    2  6.500 33.000 0.0
822 0    2  6.000 33.500 0.0
823 0    1  6.000 34.000 0.0
824 0    2  6.500 34.000 0.0
825 0    2  6.000 34.500 0.0
826 0    1  6.000 35.000 0.0
827 0    2  6.500 35.000 0.0
828 0    2  6.000 35.500 0.0
829 0    1  6.000 36.000 0.0
830 0    2  6.500 36.000 0.0
831 0    2  6.000 36.500 0.0
832 0    1  6.000 37.000 0.0
833 0    2  6.500 37.000 0.0
834 0    2  6.000 37.500 0.0
835 0    1  6.000 38.000 0.0
836 0    2  6.500 38.000 0.0
837 0    2  6.000 38.500 0.0
838 0    1  6.000 39.000 0.0
839 0    2  6.500 39.000 0.0
840 0    2  6.000 39.500 0.0
841 0    1  7.000 0.000 0.0
842 0    2  7.500 0.000 0.0
843 0    2  7.000 0.500 0.0
844 0    1  7.000 1.000 0.0
845 0    2  7.500 1.000 0.0
846 0    2  7.000 1.500 0.0
847 0    1  7.000 2.000 0.0
848 0    2  7.500 2.000 0.0
849 0    2  7.000 2.500 0.0
850 0    1  7.000 3.000 0.0
851 0    2  7.500 3.000 0.0
852 0    2  7.000 3.500 0.0
853 0    1  7.000 4.000 0.0
854 0    2  7.500 4.000 0.0
855 0    2  7.000 4.500 0.0
856 0    1  7.000 5.000 0.0
857 0    2  7.500 5.000 0.0
858 0    2  7.000 5.500 0.0
859 0    1  7.000 6.000 0.0
860 0    2  7.500 6.000 0.0
861 0    2  7.000 6.500 0.0
862 0    1  7.000 7.000 0.0
863 0    2  7.500 7.000 0.0
864 0    2  7.000 7.500 0.0
865 0    1  7.000 8.000 0.0
866 0    2  7.500 8.000 0.0
867 0    2  7.000 8.500 0.0
868 0    1  7.000 9.000 0.0
869 0    2  7.500 9.000 0.0
870 0    2  7.000 9.500 0.0
871 0    1  7.000 10.000 0.0
872 0    2  7.500 10.000 0.0
873 0    2  7.000 10.500 0.0
874 0    1  7.000 11.000 0.0
875 0    2  7.500 11.000 0.0
876 0    2  7.000 11.500 0.0
877 0    1  7.000 12.000 0.0
878 0    2  7.500 12.000 0.0
879 0    2  7.000 12.500 0.0
880 0    1  7.000 13.000 0.0
881 0    2  7.500 13.000 0.0
882 0    2  7.000 13.500 0.0
883 0    1  7.000 14.000 0.0
884 0    2  7.500 14.000 0.0
885 0    2  7.000 14.500 0.0
886 0    1  7.000 15.000 0.0
887 0    2  7.500 15.000 0.0
888 0    2  7.000 15.500 0.0
889 0    1  7.000 16.000 0.0
890 0    2  7.500 16.000 0.0
891 0    2  7.000 16.500 0.0
892 0    1  7.000 17.000 0.0
893 0    2  7.500 17.000 0.0
894 0    2  7.000 17.500 0.0
895 0    1  7.000 18.000 0.0
896 0    2  7.500 18.000 0.0
897 0    2  7.000 18.500 0.0
898 0    1  7.000 19.000 0.0
899 0    2  7.500 19.000 0.0
900 0    2  7.000 19.500 0.0
901 0    1  7.000 20.000 0.0
902 0    2  7.500 20.000 0.0
903 0    2  7.000 20.500 0.0
904 0    1  7.000 21.000 0.0
905 0    2  7.500 21.000 0.0
906 0    2  7.000 21.500 0.0
907 0    1  7.000 22.000 0.0
908 0    2  7.500 22.000 0.0
909 0    2  7.000 22.500 0.0
910 0    1  7.000 23.000 0.0
911 0    2  7.500 23.000 0.0
912 0    2  7.000 23.500 0.0
913 0    1  7.000 24.000 0.0
914 0    2  7.500 24.000 0.0
915 0    2  7.000 24.500 0.0
916 0    1  7.000 25.000 0.0
917 0    2  7.500 25.000 0.0
918 0    2  7.000 25.500 0.0
919 0    1  7.000 26.000 0.0
920 0    2  7.500 26.000 0.0
921 0    2  7.000 26.500 0.0
922 0    1  7.000 27.000 0.0
923 0    2  7.500 27.000 0.0
924 0    2  7.000 27.500 0.0
925 0    1  7.000 28.000 0.0
926 0    2  7.500 28.000 0.0
927 0    2  7.000 28.500 0.0
928 0    1  7.000 29.000 0.0
929 0    2  7.500 29.000 0.0
930 0    2  7.000 29.500 0.0
931 0    1  7.000 30.000 0.0
932 0    2  7.500 30.000 0.0
933 0    2  7.000 30.500 0.0
934 0    1  7.000 31.000 0.0
935 0    2  7.500 31.000 0.0
936 0    2  7.000 31.500 0.0
937 0    1  7.000 32.000 0.0
938 0    2  7.500 32.000 0.0
939 0    2  7.000 32.500 0.0
940 0    1  7.000 33.000 0.0
941 0    2  7.500 33.000 0.0
942 0    2  7.000 33.500 0.0
943 0    1  7.000 34.000 0.0
944 0    2  7.500 34.000 0.0
945 0    2  7.000 34.500 0.0
946 0    1  7.000 35.000 0.0
947 0    2  7.500 35.000 0.0
948 0    2  7.000 35.500 0.0
949 0    1  7.000 36.000 0.0
950 0    2  7.500 36.000 0.0
951 0    2  7.000 36.500 0.0
952 0    1  7.000 37.000 0.0
953 0    2  7.500 37.000 0.0
954 0    2  7.000 37.500 0.0
955 0    1  7.000 38.000 0.0
956 0    2  7.500 38.000 0.0
957 0    2  7.000 38.500 0.0
958 0    1  7.000 39.000 0.0
959 0    2  7.500 39.000 0.0
960 0    2  7.000 39.500 0.0
961 0    1  8.000 0.000 0.0
962 0    2  8.500 0.000 0.0
963 0    2  8.000 0.500 0.0
964 0    1  8.000 1.000 0.0
965 0    2  8.500 1.000 0.0
966 0    2  8.000 1.500 0.0
967 0    1  8.000 2.000 0.0
968 0    2  8.500 2.000 0.0
969 0    2  8.000 2.500 0.0
970 0    1  8.000 3.000 0.0
971 0    2  8.500 3.000 0.0
972 0    2  8.000 3.500 0.0
973 0    1  8.000 4.000 0.0
974 0    2  8.500 4.000 0.0
975 0    2  8.000 4.500 0.0
976 0    1  8.000 5.000 0.0
977 0    2  8.500 5.000 0.0
978 0    2  8.000 5.500 0.0
979 0    1  8.000 6.000 0.0
980 0    2  8.500 6.000 0.0
981 0    2  8.000 6.500 0.0
982 0    1  8.000 7.000 0.0
983 0    2  8.500 7.000 0.0
984 0    2  8.000 7.500 0.0
985 0    1  8.000 8.000 0.0
986 0    2  8.500 8.000 0.0
987 0    2  8.000 8.500 0.0
988 0    1  8.000 9.000 0.0
989 0    2  8.500 9.000 0.0
990 0    2  8.000 9.500 0.0
991 0    1  8.000 10.000 0.0
992 0    2  8.500 10.000 0.0
993 0    2  8.000 10.500 0.0
994 0    1  8.000 11.000 0.0
995 0    2  8.500 11.000 0.0
996 0    2  8.000 11.500 0.0
997 0    1  8.000 12.000 0.0
998 0    2  8.500 12.000 0.0
999 0    2  8.000 12.500 0.0
1000 0    1  8.000 13.000 0.0
1001 0    2  8.500 13.000 0.0
1002 0    2  8.000 13.500 0.0
1003 0    1  8.000 14.000 0.0
1004 0    2  8.500 14.000 0.0
1005 0    2  8.000 14.500 0.0
1006 0    1  8.000 15.000 0.0
1007 0    2  8.500 15.000 0.0
1008 0    2  8.000 15.500 0.0
1009 0    1  8.000 16.000 0.0
1010 0    2  8.500 16.000 0.0
1011 0    2  8.000 16.500 0.0
1012 0    1  8.000 17.000 0.0
1013 0    2  8.500 17.000 0.0
1014 0    2  8.000 17.500 0.0
1015 0    1  8.000 18.000 0.0
1016 0    2  8.500 18.000 0.0
1017 0    2  8.000 18.500 0.0
1018 0    1  8.000 19.000 0.0
1019 0    2  8.500 19.000 0.0
1020 0    2  8.000 19.500 0.0
1021 0    1  8.000 20.000 0.0
1022 0    2  8.500 20.000 0.0
1023 0    2  8.000 20.500 0.0
1024 0    1  8.000 21.000 0.0
1025 0    2  8.500 21.000 0.0
1026 0    2  8.000 21.500 0.0
1027 0    1  8.000 22.000 0.0
1028 0    2  8.500 22.000 0.0
1029 0    2  8.000 22.500 0.0
1030 0    1  8.000 23.000 0.0
1031 0    2  8.500 23.000 0.0
1032 0    2  8.000 23.500 0.0
1033 0    1  8.000 24.000 0.0
1034 0    2  8.500 24.000 0.0
1035 0    2  8.000 24.500 0.0
1036 0    1  8.000 25.000 0.0
1037 0    2  8.500 25.000 0.0