LAMMPS (20 Nov 2019)
Total wall time: 0:00:00
