# auto generated

1296 atoms
2 atom types

 0.0000000  27.5580000 xlo xhi
 0.0000000  27.5580000 ylo yhi
 0.0000000  17.8860000 zlo zhi

Atoms 

     1  1  1.9000  2.296500000  2.296500000  1.490500000
     2  1  1.9000  6.889500000 16.075500000 13.414500000
     3  1  1.9000 20.668500000 25.261500000 10.433500000
     4  1  1.9000 18.372000000 22.965000000  8.943000000
     5  1  1.9000  4.593000000 13.779000000  8.943000000
     6  1  1.9000  6.889500000 16.075500000 10.433500000
     7  1  1.9000 11.482500000 25.261500000  7.452500000
     8  1  1.9000 20.668500000 25.261500000 13.414500000
     9  1  1.9000 18.372000000 22.965000000 11.924000000
    10  1  1.9000  4.593000000 13.779000000  5.962000000
    11  1  1.9000  6.889500000 16.075500000  7.452500000
    12  1  1.9000  9.186000000 22.965000000  5.962000000
    13  1  1.9000 18.372000000  0.000000000  5.962000000
    14  1  1.9000  4.593000000 13.779000000 11.924000000
    15  1  1.9000 20.668500000  2.296500000  7.452500000
    16  1  1.9000  6.889500000 16.075500000  4.471500000
    17  1  1.9000 20.668500000 25.261500000 16.395500000
    18  1  1.9000 18.372000000 22.965000000 14.905000000
    19  1  1.9000 11.482500000 25.261500000 10.433500000
    20  1  1.9000  4.593000000 13.779000000  0.000000000
    21  1  1.9000  6.889500000 16.075500000  1.490500000
    22  1  1.9000  9.186000000 22.965000000  8.943000000
    23  1  1.9000 25.261500000  2.296500000  1.490500000
    24  1  1.9000 22.965000000  0.000000000  0.000000000
    25  1  1.9000  4.593000000  9.186000000 14.905000000
    26  1  1.9000  6.889500000 11.482500000 16.395500000
    27  1  1.9000 18.372000000  0.000000000  2.981000000
    28  1  1.9000  4.593000000 13.779000000  2.981000000
    29  1  1.9000 20.668500000  2.296500000  4.471500000
    30  1  1.9000  9.186000000 22.965000000  2.981000000
    31  1  1.9000 20.668500000  2.296500000 10.433500000
    32  1  1.9000  6.889500000 20.668500000 13.414500000
    33  1  1.9000 20.668500000 20.668500000 16.395500000
    34  1  1.9000 18.372000000 18.372000000 14.905000000
    35  1  1.9000 11.482500000 20.668500000 16.395500000
    36  1  1.9000  4.593000000 18.372000000  8.943000000
    37  1  1.9000  6.889500000 20.668500000 10.433500000
    38  1  1.9000  9.186000000 18.372000000 14.905000000
    39  1  1.9000 18.372000000  0.000000000 11.924000000
    40  1  1.9000 20.668500000 25.261500000  1.490500000
    41  1  1.9000 18.372000000 22.965000000  0.000000000
    42  1  1.9000  4.593000000 18.372000000  5.962000000
    43  1  1.9000  6.889500000 20.668500000  7.452500000
    44  1  1.9000 11.482500000 25.261500000  4.471500000
    45  1  1.9000 20.668500000  2.296500000 13.414500000
    46  1  1.9000  4.593000000 18.372000000  2.981000000
    47  1  1.9000  6.889500000 20.668500000  4.471500000
    48  1  1.9000 20.668500000 25.261500000  4.471500000
    49  1  1.9000 18.372000000 22.965000000  2.981000000
    50  1  1.9000  9.186000000 22.965000000  0.000000000
    51  1  1.9000  4.593000000 18.372000000  0.000000000
    52  1  1.9000  6.889500000 20.668500000  1.490500000
    53  1  1.9000 18.372000000  0.000000000  8.943000000
    54  1  1.9000 20.668500000 25.261500000  7.452500000
    55  1  1.9000 18.372000000 22.965000000  5.962000000
    56  1  1.9000  4.593000000 13.779000000 14.905000000
    57  1  1.9000  6.889500000 16.075500000 16.395500000
    58  1  1.9000 11.482500000 25.261500000  1.490500000
    59  1  1.9000  4.593000000 18.372000000 11.924000000
    60  1  1.9000 11.482500000 25.261500000 13.414500000
    61  1  1.9000  6.889500000 11.482500000 13.414500000
    62  1  1.9000 16.075500000 25.261500000 16.395500000
    63  1  1.9000 16.075500000  2.296500000  4.471500000
    64  1  1.9000  4.593000000  4.593000000  8.943000000
    65  1  1.9000  6.889500000  6.889500000 10.433500000
    66  1  1.9000 13.779000000  0.000000000  2.981000000
    67  1  1.9000 18.372000000  9.186000000  0.000000000
    68  1  1.9000 25.261500000  6.889500000  1.490500000
    69  1  1.9000 22.965000000  4.593000000  0.000000000
    70  1  1.9000  4.593000000  4.593000000  5.962000000
    71  1  1.9000  6.889500000  6.889500000  7.452500000
    72  1  1.9000 16.075500000  2.296500000  7.452500000
    73  1  1.9000  4.593000000  4.593000000  2.981000000
    74  1  1.9000 22.965000000  0.000000000 14.905000000
    75  1  1.9000  6.889500000  6.889500000  4.471500000
    76  1  1.9000 22.965000000  4.593000000  2.981000000
    77  1  1.9000 13.779000000  0.000000000  5.962000000
    78  1  1.9000 13.779000000 22.965000000 11.924000000
    79  1  1.9000  4.593000000  4.593000000  0.000000000
    80  1  1.9000  6.889500000  6.889500000  1.490500000
    81  1  1.9000 16.075500000 25.261500000 13.414500000
    82  1  1.9000 25.261500000  6.889500000  7.452500000
    83  1  1.9000 22.965000000  4.593000000  5.962000000
    84  1  1.9000  4.593000000  0.000000000 14.905000000
    85  1  1.9000  6.889500000  2.296500000 16.395500000
    86  1  1.9000 16.075500000  2.296500000 10.433500000
    87  1  1.9000 13.779000000  0.000000000  8.943000000
    88  1  1.9000 25.261500000  6.889500000  4.471500000
    89  1  1.9000  4.593000000  9.186000000 11.924000000
    90  1  1.9000 25.261500000  2.296500000 16.395500000
    91  1  1.9000  4.593000000  4.593000000 11.924000000
    92  1  1.9000 25.261500000  2.296500000  4.471500000
    93  1  1.9000 22.965000000  0.000000000  2.981000000
    94  1  1.9000  9.186000000 22.965000000 11.924000000
    95  1  1.9000  4.593000000  9.186000000  8.943000000
    96  1  1.9000  6.889500000 11.482500000 10.433500000
    97  1  1.9000 25.261500000  2.296500000  7.452500000
    98  1  1.9000 22.965000000  0.000000000  5.962000000
    99  1  1.9000  4.593000000  9.186000000  5.962000000
   100  1  1.9000  6.889500000 11.482500000  7.452500000
   101  1  1.9000 11.482500000 25.261500000 16.395500000
   102  1  1.9000  9.186000000 22.965000000 14.905000000
   103  1  1.9000 18.372000000  0.000000000  0.000000000
   104  1  1.9000  6.889500000  6.889500000 13.414500000
   105  1  1.9000  4.593000000  9.186000000  2.981000000
   106  1  1.9000 25.261500000  2.296500000 10.433500000
   107  1  1.9000 22.965000000  0.000000000  8.943000000
   108  1  1.9000 20.668500000  2.296500000  1.490500000
   109  1  1.9000  4.593000000  9.186000000  0.000000000
   110  1  1.9000  6.889500000 11.482500000  1.490500000
   111  1  1.9000 16.075500000  2.296500000  1.490500000
   112  1  1.9000 25.261500000  2.296500000 13.414500000
   113  1  1.9000 22.965000000  0.000000000 11.924000000
   114  1  1.9000  4.593000000  4.593000000 14.905000000
   115  1  1.9000  6.889500000  6.889500000 16.395500000
   116  1  1.9000 13.779000000  0.000000000  0.000000000
   117  1  1.9000 13.779000000 22.965000000 14.905000000
   118  1  1.9000  6.889500000 11.482500000  4.471500000
   119  1  1.9000  4.593000000  0.000000000 11.924000000
   120  1  1.9000 13.779000000 13.779000000  8.943000000
   121  1  1.9000  4.593000000 18.372000000 14.905000000
   122  1  1.9000 18.372000000  4.593000000 11.924000000
   123  1  1.9000 20.668500000  6.889500000 13.414500000
   124  1  1.9000  9.186000000  4.593000000 11.924000000
   125  1  1.9000 11.482500000  6.889500000 13.414500000
   126  1  1.9000 20.668500000 11.482500000 16.395500000
   127  1  1.9000 18.372000000  9.186000000 14.905000000
   128  1  1.9000 11.482500000 16.075500000 10.433500000
   129  1  1.9000  9.186000000 13.779000000  8.943000000
   130  1  1.9000  9.186000000  4.593000000  8.943000000
   131  1  1.9000 11.482500000  6.889500000 10.433500000
   132  1  1.9000 20.668500000 16.075500000  1.490500000
   133  1  1.9000 18.372000000 13.779000000  0.000000000
   134  1  1.9000 11.482500000  6.889500000 16.395500000
   135  1  1.9000  9.186000000  4.593000000  5.962000000
   136  1  1.9000 18.372000000  4.593000000  8.943000000
   137  1  1.9000 20.668500000  6.889500000 10.433500000
   138  1  1.9000 11.482500000 16.075500000 13.414500000
   139  1  1.9000  9.186000000 13.779000000 11.924000000
   140  1  1.9000  9.186000000  4.593000000  2.981000000
   141  1  1.9000 11.482500000  6.889500000  4.471500000
   142  1  1.9000 20.668500000 16.075500000  4.471500000
   143  1  1.9000 18.372000000 13.779000000  2.981000000
   144  1  1.9000  9.186000000  4.593000000  0.000000000
   145  1  1.9000 11.482500000  6.889500000  1.490500000
   146  1  1.9000 20.668500000 16.075500000  7.452500000
   147  1  1.9000 18.372000000 13.779000000  5.962000000
   148  1  1.9000 11.482500000  6.889500000  7.452500000
   149  1  1.9000  9.186000000  0.000000000 14.905000000
   150  1  1.9000  9.186000000  4.593000000 14.905000000
   151  1  1.9000 20.668500000 11.482500000 13.414500000
   152  1  1.9000  9.186000000  9.186000000 14.905000000
   153  1  1.9000 11.482500000 11.482500000 16.395500000
   154  1  1.9000 11.482500000 16.075500000  1.490500000
   155  1  1.9000  9.186000000 13.779000000  0.000000000
   156  1  1.9000  9.186000000  9.186000000 11.924000000
   157  1  1.9000 11.482500000 11.482500000 13.414500000
   158  1  1.9000 20.668500000 11.482500000  4.471500000
   159  1  1.9000 18.372000000  9.186000000  2.981000000
   160  1  1.9000  9.186000000  9.186000000  8.943000000
   161  1  1.9000 11.482500000 11.482500000 10.433500000
   162  1  1.9000 18.372000000  4.593000000 14.905000000
   163  1  1.9000 20.668500000  6.889500000 16.395500000
   164  1  1.9000 18.372000000  9.186000000 11.924000000
   165  1  1.9000 20.668500000 11.482500000  7.452500000
   166  1  1.9000  9.186000000  9.186000000  5.962000000
   167  1  1.9000 11.482500000 11.482500000  7.452500000
   168  1  1.9000 11.482500000 16.075500000  4.471500000
   169  1  1.9000  9.186000000 13.779000000  2.981000000
   170  1  1.9000  9.186000000  9.186000000  2.981000000
   171  1  1.9000 11.482500000 11.482500000  4.471500000
   172  1  1.9000 20.668500000 11.482500000 10.433500000
   173  1  1.9000 18.372000000  9.186000000  8.943000000
   174  1  1.9000  9.186000000  9.186000000  0.000000000
   175  1  1.9000 11.482500000 11.482500000  1.490500000
   176  1  1.9000 11.482500000 16.075500000  7.452500000
   177  1  1.9000  9.186000000 13.779000000  5.962000000
   178  1  1.9000 18.372000000  9.186000000  5.962000000
   179  1  1.9000  6.889500000 20.668500000 16.395500000
   180  1  1.9000 11.482500000  2.296500000 16.395500000
   181  1  1.9000  9.186000000 13.779000000 14.905000000
   182  1  1.9000  4.593000000 22.965000000 11.924000000
   183  1  1.9000  6.889500000 25.261500000 13.414500000
   184  1  1.9000 20.668500000 20.668500000  4.471500000
   185  1  1.9000 18.372000000 18.372000000  2.981000000
   186  1  1.9000 18.372000000  4.593000000  0.000000000
   187  1  1.9000 20.668500000  6.889500000  1.490500000
   188  1  1.9000  4.593000000 22.965000000  8.943000000
   189  1  1.9000  6.889500000 25.261500000 10.433500000
   190  1  1.9000 20.668500000 20.668500000  7.452500000
   191  1  1.9000 18.372000000 18.372000000  5.962000000
   192  1  1.9000  4.593000000 22.965000000  5.962000000
   193  1  1.9000  6.889500000 25.261500000  7.452500000
   194  1  1.9000  9.186000000 18.372000000  5.962000000
   195  1  1.9000 11.482500000 20.668500000 10.433500000
   196  1  1.9000  4.593000000 22.965000000  2.981000000
   197  1  1.9000  6.889500000 25.261500000  4.471500000
   198  1  1.9000 20.668500000 20.668500000 10.433500000
   199  1  1.9000 18.372000000 18.372000000  8.943000000
   200  1  1.9000 18.372000000  0.000000000 14.905000000
   201  1  1.9000 20.668500000  2.296500000 16.395500000
   202  1  1.9000  4.593000000 22.965000000  0.000000000
   203  1  1.9000  6.889500000 25.261500000  1.490500000
   204  1  1.9000 11.482500000 20.668500000 13.414500000
   205  1  1.9000  9.186000000 18.372000000 11.924000000
   206  1  1.9000 20.668500000 20.668500000 13.414500000
   207  1  1.9000 18.372000000 18.372000000 11.924000000
   208  1  1.9000  9.186000000 18.372000000  8.943000000
   209  1  1.9000 11.482500000 16.075500000 16.395500000
   210  1  1.9000 11.482500000 20.668500000  7.452500000
   211  1  1.9000  4.593000000 22.965000000 14.905000000
   212  1  1.9000 18.372000000  4.593000000  5.962000000
   213  1  1.9000 20.668500000  6.889500000  7.452500000
   214  1  1.9000  9.186000000  0.000000000 11.924000000
   215  1  1.9000 11.482500000  2.296500000 13.414500000
   216  1  1.9000 20.668500000 16.075500000 10.433500000
   217  1  1.9000 18.372000000 13.779000000  8.943000000
   218  1  1.9000  9.186000000  0.000000000  8.943000000
   219  1  1.9000 11.482500000  2.296500000 10.433500000
   220  1  1.9000 11.482500000 20.668500000  1.490500000
   221  1  1.9000  9.186000000 18.372000000  0.000000000
   222  1  1.9000 20.668500000 16.075500000 13.414500000
   223  1  1.9000 18.372000000 13.779000000 11.924000000
   224  1  1.9000  6.889500000 25.261500000 16.395500000
   225  1  1.9000  9.186000000  0.000000000  5.962000000
   226  1  1.9000 18.372000000  4.593000000  2.981000000
   227  1  1.9000 20.668500000  6.889500000  4.471500000
   228  1  1.9000  9.186000000  0.000000000  2.981000000
   229  1  1.9000 11.482500000  2.296500000  4.471500000
   230  1  1.9000 20.668500000 16.075500000 16.395500000
   231  1  1.9000 18.372000000 13.779000000 14.905000000
   232  1  1.9000 11.482500000 20.668500000  4.471500000
   233  1  1.9000  9.186000000 18.372000000  2.981000000
   234  1  1.9000  9.186000000  0.000000000  0.000000000
   235  1  1.9000 11.482500000  2.296500000  1.490500000
   236  1  1.9000 20.668500000 20.668500000  1.490500000
   237  1  1.9000 18.372000000 18.372000000  0.000000000
   238  1  1.9000 11.482500000  2.296500000  7.452500000
   239  1  1.9000  6.889500000  2.296500000 13.414500000
   240  1  1.9000 20.668500000 11.482500000  1.490500000
   241  1  1.9000 22.965000000  4.593000000  8.943000000
   242  1  1.9000 25.261500000 20.668500000  1.490500000
   243  1  1.9000 22.965000000 18.372000000  0.000000000
   244  1  1.9000  0.000000000  9.186000000 14.905000000
   245  1  1.9000  2.296500000 11.482500000 16.395500000
   246  1  1.9000 16.075500000 11.482500000  7.452500000
   247  1  1.9000  0.000000000  9.186000000 11.924000000
   248  1  1.9000  2.296500000 11.482500000 13.414500000
   249  1  1.9000 25.261500000 20.668500000  4.471500000
   250  1  1.9000 22.965000000 18.372000000  2.981000000
   251  1  1.9000 13.779000000  9.186000000  5.962000000
   252  1  1.9000 13.779000000 18.372000000  5.962000000
   253  1  1.9000  0.000000000  9.186000000  8.943000000
   254  1  1.9000  2.296500000 11.482500000 10.433500000
   255  1  1.9000 16.075500000 20.668500000  7.452500000
   256  1  1.9000 25.261500000 20.668500000  7.452500000
   257  1  1.9000 22.965000000 18.372000000  5.962000000
   258  1  1.9000  0.000000000  9.186000000  5.962000000
   259  1  1.9000  2.296500000 11.482500000  7.452500000
   260  1  1.9000 16.075500000 11.482500000 10.433500000
   261  1  1.9000 13.779000000  9.186000000  8.943000000
   262  1  1.9000  0.000000000  9.186000000  2.981000000
   263  1  1.9000  2.296500000 11.482500000  4.471500000
   264  1  1.9000 25.261500000 20.668500000 10.433500000
   265  1  1.9000 22.965000000 18.372000000  8.943000000
   266  1  1.9000 13.779000000 18.372000000  2.981000000
   267  1  1.9000 13.779000000  9.186000000  2.981000000
   268  1  1.9000  0.000000000  9.186000000  0.000000000
   269  1  1.9000  2.296500000 16.075500000  1.490500000
   270  1  1.9000 16.075500000 11.482500000  4.471500000
   271  1  1.9000 22.965000000 13.779000000  5.962000000
   272  1  1.9000  0.000000000 13.779000000 14.905000000
   273  1  1.9000  2.296500000 16.075500000 16.395500000
   274  1  1.9000 16.075500000  6.889500000 16.395500000
   275  1  1.9000 13.779000000  4.593000000 14.905000000
   276  1  1.9000 13.779000000 18.372000000 11.924000000
   277  1  1.9000  0.000000000 13.779000000 11.924000000
   278  1  1.9000  2.296500000 16.075500000 13.414500000
   279  1  1.9000 25.261500000 16.075500000 10.433500000
   280  1  1.9000 22.965000000 13.779000000  8.943000000
   281  1  1.9000 16.075500000 20.668500000 13.414500000
   282  1  1.9000  0.000000000 13.779000000  8.943000000
   283  1  1.9000  2.296500000 16.075500000 10.433500000
   284  1  1.9000 16.075500000 11.482500000  1.490500000
   285  1  1.9000 25.261500000 16.075500000 13.414500000
   286  1  1.9000 22.965000000 13.779000000 11.924000000
   287  1  1.9000  0.000000000 13.779000000  5.962000000
   288  1  1.9000  2.296500000 16.075500000  7.452500000
   289  1  1.9000 25.261500000  6.889500000 10.433500000
   290  1  1.9000 13.779000000 18.372000000  8.943000000
   291  1  1.9000  0.000000000 13.779000000  2.981000000
   292  1  1.9000  2.296500000 16.075500000  4.471500000
   293  1  1.9000 25.261500000 16.075500000 16.395500000
   294  1  1.9000 22.965000000 13.779000000 14.905000000
   295  1  1.9000 16.075500000 20.668500000 10.433500000
   296  1  1.9000  0.000000000 13.779000000  0.000000000
   297  1  1.9000  2.296500000 11.482500000  1.490500000
   298  1  1.9000 16.075500000 20.668500000  4.471500000
   299  1  1.9000 16.075500000 11.482500000 13.414500000
   300  1  1.9000  0.000000000  0.000000000 14.905000000
   301  1  1.9000  2.296500000  2.296500000 16.395500000
   302  1  1.9000 16.075500000 16.075500000 16.395500000
   303  1  1.9000 16.075500000 16.075500000  4.471500000
   304  1  1.9000 13.779000000 13.779000000  2.981000000
   305  1  1.9000  0.000000000  0.000000000 11.924000000
   306  1  1.9000  2.296500000  2.296500000 13.414500000
   307  1  1.9000 25.261500000 25.261500000 10.433500000
   308  1  1.9000 22.965000000 22.965000000  8.943000000
   309  1  1.9000  0.000000000  0.000000000  8.943000000
   310  1  1.9000  2.296500000  2.296500000 10.433500000
   311  1  1.9000 16.075500000 16.075500000  7.452500000
   312  1  1.9000 25.261500000 25.261500000 13.414500000
   313  1  1.9000 22.965000000 22.965000000 11.924000000
   314  1  1.9000  0.000000000  0.000000000  5.962000000
   315  1  1.9000  2.296500000  2.296500000  7.452500000
   316  1  1.9000 13.779000000 13.779000000  5.962000000
   317  1  1.9000 13.779000000 13.779000000 11.924000000
   318  1  1.9000 16.075500000 16.075500000 13.414500000
   319  1  1.9000  0.000000000  0.000000000  2.981000000
   320  1  1.9000  2.296500000  2.296500000  4.471500000
   321  1  1.9000 25.261500000 25.261500000 16.395500000
   322  1  1.9000 22.965000000 22.965000000 14.905000000
   323  1  1.9000 16.075500000 16.075500000 10.433500000
   324  1  1.9000  0.000000000  0.000000000  0.000000000
   325  1  1.9000 22.965000000 22.965000000  5.962000000
   326  1  1.9000 25.261500000 25.261500000  7.452500000
   327  1  1.9000 13.779000000 13.779000000 14.905000000
   328  1  1.9000  2.296500000  6.889500000  1.490500000
   329  1  1.9000 25.261500000 20.668500000 13.414500000
   330  1  1.9000 22.965000000 18.372000000 11.924000000
   331  1  1.9000  0.000000000  4.593000000 14.905000000
   332  1  1.9000  2.296500000  6.889500000 16.395500000
   333  1  1.9000 13.779000000  9.186000000 11.924000000
   334  1  1.9000  0.000000000  4.593000000 11.924000000
   335  1  1.9000  2.296500000  6.889500000 13.414500000
   336  1  1.9000 25.261500000 20.668500000 16.395500000
   337  1  1.9000 22.965000000 18.372000000 14.905000000
   338  1  1.9000 16.075500000 11.482500000 16.395500000
   339  1  1.9000  0.000000000  4.593000000  8.943000000
   340  1  1.9000  2.296500000  6.889500000 10.433500000
   341  1  1.9000 25.261500000 16.075500000  7.452500000
   342  1  1.9000 13.779000000  9.186000000 14.905000000
   343  1  1.9000 25.261500000 25.261500000  1.490500000
   344  1  1.9000 22.965000000 22.965000000  0.000000000
   345  1  1.9000  0.000000000  4.593000000  5.962000000
   346  1  1.9000  2.296500000  6.889500000  7.452500000
   347  1  1.9000 16.075500000 20.668500000  1.490500000
   348  1  1.9000 16.075500000 16.075500000  1.490500000
   349  1  1.9000  0.000000000  4.593000000  2.981000000
   350  1  1.9000  2.296500000  6.889500000  4.471500000
   351  1  1.9000 25.261500000 25.261500000  4.471500000
   352  1  1.9000 22.965000000 22.965000000  2.981000000
   353  1  1.9000 13.779000000 13.779000000  0.000000000
   354  1  1.9000  0.000000000  4.593000000  0.000000000
   355  1  1.9000 13.779000000 18.372000000  0.000000000
   356  1  1.9000  2.296500000 20.668500000  1.490500000
   357  1  1.9000 13.779000000  9.186000000  0.000000000
   358  1  1.9000 16.075500000 25.261500000  4.471500000
   359  1  1.9000 25.261500000 11.482500000 10.433500000
   360  1  1.9000 22.965000000  9.186000000  8.943000000
   361  1  1.9000  6.889500000  2.296500000  1.490500000
   362  1  1.9000  4.593000000  0.000000000  0.000000000
   363  1  1.9000 16.075500000  2.296500000 16.395500000
   364  1  1.9000 22.965000000  4.593000000 14.905000000
   365  1  1.9000  0.000000000 22.965000000  0.000000000
   366  1  1.9000  2.296500000 25.261500000  1.490500000
   367  1  1.9000 13.779000000  0.000000000 14.905000000
   368  1  1.9000 16.075500000  6.889500000  7.452500000
   369  1  1.9000 22.965000000  9.186000000 11.924000000
   370  1  1.9000  0.000000000 18.372000000 14.905000000
   371  1  1.9000  2.296500000 20.668500000 16.395500000
   372  1  1.9000 13.779000000  4.593000000  5.962000000
   373  1  1.9000 22.965000000  9.186000000  2.981000000
   374  1  1.9000 25.261500000  6.889500000 16.395500000
   375  1  1.9000  6.889500000  2.296500000  4.471500000
   376  1  1.9000  4.593000000  0.000000000  2.981000000
   377  1  1.9000 25.261500000 11.482500000 13.414500000
   378  1  1.9000 13.779000000 22.965000000  5.962000000
   379  1  1.9000  2.296500000 25.261500000  4.471500000
   380  1  1.9000  0.000000000 22.965000000  2.981000000
   381  1  1.9000  2.296500000 25.261500000 13.414500000
   382  1  1.9000 13.779000000  4.593000000  0.000000000
   383  1  1.9000  0.000000000 22.965000000 11.924000000
   384  1  1.9000  0.000000000 22.965000000  8.943000000
   385  1  1.9000  2.296500000 25.261500000 10.433500000
   386  1  1.9000 16.075500000  6.889500000  1.490500000
   387  1  1.9000 13.779000000 22.965000000  2.981000000
   388  1  1.9000 16.075500000 25.261500000  7.452500000
   389  1  1.9000  2.296500000 25.261500000 16.395500000
   390  1  1.9000 25.261500000 11.482500000  7.452500000
   391  1  1.9000 22.965000000  9.186000000  5.962000000
   392  1  1.9000  0.000000000 22.965000000  5.962000000
   393  1  1.9000  2.296500000 25.261500000  7.452500000
   394  1  1.9000  0.000000000 18.372000000  0.000000000
   395  1  1.9000 16.075500000  6.889500000  4.471500000
   396  1  1.9000  0.000000000 22.965000000 14.905000000
   397  1  1.9000 13.779000000  4.593000000  2.981000000
   398  1  1.9000 22.965000000  9.186000000  0.000000000
   399  1  1.9000 25.261500000 11.482500000  1.490500000
   400  1  1.9000 13.779000000 22.965000000  0.000000000
   401  1  1.9000 16.075500000 25.261500000  1.490500000
   402  1  1.9000 25.261500000 11.482500000  4.471500000
   403  1  1.9000  2.296500000 20.668500000  7.452500000
   404  1  1.9000 22.965000000  4.593000000 11.924000000
   405  1  1.9000 25.261500000 16.075500000  4.471500000
   406  1  1.9000 13.779000000 22.965000000  8.943000000
   407  1  1.9000 25.261500000 16.075500000  1.490500000
   408  1  1.9000 22.965000000 13.779000000  0.000000000
   409  1  1.9000  0.000000000 18.372000000  5.962000000
   410  1  1.9000  2.296500000 20.668500000  4.471500000
   411  1  1.9000 25.261500000  6.889500000 13.414500000
   412  1  1.9000  0.000000000 18.372000000 11.924000000
   413  1  1.9000 16.075500000  2.296500000 13.414500000
   414  1  1.9000  0.000000000 18.372000000  2.981000000
   415  1  1.9000 16.075500000 25.261500000 10.433500000
   416  1  1.9000  4.593000000  0.000000000  8.943000000
   417  1  1.9000 13.779000000 18.372000000 14.905000000
   418  1  1.9000 16.075500000  6.889500000 13.414500000
   419  1  1.9000 16.075500000 20.668500000 16.395500000
   420  1  1.9000 13.779000000  4.593000000  8.943000000
   421  1  1.9000  4.593000000  0.000000000  5.962000000
   422  1  1.9000 13.779000000  4.593000000 11.924000000
   423  1  1.9000  2.296500000 20.668500000 13.414500000
   424  1  1.9000 25.261500000 11.482500000 16.395500000
   425  1  1.9000 22.965000000  9.186000000 14.905000000
   426  1  1.9000  6.889500000  2.296500000  7.452500000
   427  1  1.9000 16.075500000  6.889500000 10.433500000
   428  1  1.9000  0.000000000 18.372000000  8.943000000
   429  1  1.9000  6.889500000  2.296500000 10.433500000
   430  1  1.9000  2.296500000 20.668500000 10.433500000
   431  1  1.9000 22.965000000 13.779000000  2.981000000
   432  1  1.9000 13.779000000  0.000000000 11.924000000
   433  2 -0.9500 19.771303327  5.992303327 14.905000000
   434  2 -0.9500 16.972696673 26.158696673  2.981000000
   435  2 -0.9500 15.178303327 15.178303327 14.905000000
   436  2 -0.9500 15.178303327 24.364303327  2.981000000
   437  2 -0.9500 14.676196673 26.660803327 16.395500000
   438  2 -0.9500 17.474803327 23.862196673 16.395500000
   439  2 -0.9500 21.565696673  7.786696673 14.905000000
   440  2 -0.9500 17.474803327 23.862196673 10.433500000
   441  2 -0.9500 15.178303327 24.364303327  8.943000000
   442  2 -0.9500 14.676196673 26.660803327 10.433500000
   443  2 -0.9500 21.565696673  7.786696673  5.962000000
   444  2 -0.9500 15.178303327 15.178303327  8.943000000
   445  2 -0.9500 16.972696673 16.972696673 14.905000000
   446  2 -0.9500 15.178303327 24.364303327  5.962000000
   447  2 -0.9500 19.269196673  8.288803327 10.433500000
   448  2 -0.9500 17.474803327 14.676196673 13.414500000
   449  2 -0.9500 15.178303327 15.178303327 11.924000000
   450  2 -0.9500 17.474803327 23.862196673  7.452500000
   451  2 -0.9500 22.067803327  5.490196673 13.414500000
   452  2 -0.9500 19.771303327  5.992303327 11.924000000
   453  2 -0.9500 19.269196673  8.288803327 13.414500000
   454  2 -0.9500 21.565696673  7.786696673 11.924000000
   455  2 -0.9500 16.972696673 26.158696673  5.962000000
   456  2 -0.9500 14.676196673 26.660803327 13.414500000
   457  2 -0.9500 14.676196673 17.474803327 13.414500000
   458  2 -0.9500 17.474803327 23.862196673 13.414500000
   459  2 -0.9500 15.178303327 24.364303327 11.924000000
   460  2 -0.9500 14.676196673 26.660803327  7.452500000
   461  2 -0.9500 16.972696673 26.158696673  8.943000000
   462  2 -0.9500 21.565696673  7.786696673  8.943000000
   463  2 -0.9500 19.771303327  5.992303327  8.943000000
   464  2 -0.9500 14.676196673 17.474803327 16.395500000
   465  2 -0.9500 17.474803327 14.676196673 16.395500000
   466  2 -0.9500 19.269196673  8.288803327 16.395500000
   467  2 -0.9500 22.067803327  5.490196673 16.395500000
   468  2 -0.9500 22.067803327  5.490196673 10.433500000
   469  2 -0.9500 16.972696673 16.972696673  8.943000000
   470  2 -0.9500 16.972696673 16.972696673 11.924000000
   471  2 -0.9500 15.178303327 19.771303327 11.924000000
   472  2 -0.9500 22.067803327  5.490196673  7.452500000
   473  2 -0.9500 15.178303327 19.771303327  5.962000000
   474  2 -0.9500 22.067803327  0.897196673  4.471500000
   475  2 -0.9500 22.067803327  0.897196673 16.395500000
   476  2 -0.9500 19.269196673  3.695803327 16.395500000
   477  2 -0.9500 16.972696673 21.565696673 14.905000000
   478  2 -0.9500 16.972696673 21.565696673  5.962000000
   479  2 -0.9500 19.771303327  1.399303327  2.981000000
   480  2 -0.9500 15.178303327 19.771303327 14.905000000
   481  2 -0.9500 21.565696673  3.193696673  2.981000000
   482  2 -0.9500 14.676196673 22.067803327 10.433500000
   483  2 -0.9500 17.474803327 19.269196673 10.433500000
   484  2 -0.9500 21.565696673  3.193696673 11.924000000
   485  2 -0.9500 19.771303327  1.399303327 11.924000000
   486  2 -0.9500 22.067803327  0.897196673 13.414500000
   487  2 -0.9500 17.474803327 19.269196673  7.452500000
   488  2 -0.9500 17.474803327 19.269196673 16.395500000
   489  2 -0.9500 15.178303327 19.771303327  8.943000000
   490  2 -0.9500 19.269196673  3.695803327  7.452500000
   491  2 -0.9500 14.676196673 22.067803327 16.395500000
   492  2 -0.9500 16.972696673 21.565696673  8.943000000
   493  2 -0.9500 22.067803327  0.897196673  7.452500000
   494  2 -0.9500 19.771303327  1.399303327  5.962000000
   495  2 -0.9500 21.565696673  3.193696673  8.943000000
   496  2 -0.9500 19.771303327  1.399303327  8.943000000
   497  2 -0.9500 21.565696673  3.193696673  5.962000000
   498  2 -0.9500 14.676196673 22.067803327 13.414500000
   499  2 -0.9500 22.067803327  0.897196673 10.433500000
   500  2 -0.9500 16.972696673 21.565696673 11.924000000
   501  2 -0.9500 19.269196673  3.695803327 10.433500000
   502  2 -0.9500 17.474803327 19.269196673 13.414500000
   503  2 -0.9500 19.269196673  3.695803327 13.414500000
   504  2 -0.9500 19.771303327  5.992303327  5.962000000
   505  2 -0.9500 14.676196673 22.067803327  7.452500000
   506  2 -0.9500 21.565696673  3.193696673 14.905000000
   507  2 -0.9500 19.269196673  8.288803327  7.452500000
   508  2 -0.9500 17.474803327 23.862196673  4.471500000
   509  2 -0.9500 14.676196673 22.067803327  1.490500000
   510  2 -0.9500 15.178303327 24.364303327 14.905000000
   511  2 -0.9500 16.972696673 26.158696673 14.905000000
   512  2 -0.9500 17.474803327 19.269196673  1.490500000
   513  2 -0.9500 15.178303327 19.771303327  0.000000000
   514  2 -0.9500 16.972696673 21.565696673  0.000000000
   515  2 -0.9500 14.676196673 26.660803327  4.471500000
   516  2 -0.9500 21.565696673  7.786696673  2.981000000
   517  2 -0.9500 19.771303327  5.992303327  2.981000000
   518  2 -0.9500 19.269196673  3.695803327  1.490500000
   519  2 -0.9500 22.067803327  5.490196673  4.471500000
   520  2 -0.9500 19.269196673  8.288803327  4.471500000
   521  2 -0.9500 19.771303327  1.399303327 14.905000000
   522  2 -0.9500 14.676196673 22.067803327  4.471500000
   523  2 -0.9500 22.067803327  0.897196673  1.490500000