# written by diffit!

11624 atoms
2 atom types

 0.000000000  45.930000000 xlo xhi
 0.000000000  45.930000000 ylo yhi
 0.000000000  59.620000000 zlo zhi
 0.0 0.0 0.0 xy xz yz

Masses

1 47.867
2 15.999

Atoms

1 1  1.900000000     0.000000000     0.000000000     0.000000000
2 1  1.900000000     2.296500000     2.296500000     1.490500000
3 2 -0.950000000     1.148250000     3.444750000     1.490500000
4 2 -0.950000000     3.444750000     1.148250000     1.490500000
5 2 -0.950000000     3.444750000     3.444750000     0.000000000
6 1  1.900000000     0.000000000     0.000000000     2.981000000
7 1  1.900000000     2.296500000     2.296500000     4.471500000
8 2 -0.950000000     1.148250000     3.444750000     4.471500000
9 2 -0.950000000     3.444750000     1.148250000     4.471500000
10 2 -0.950000000     1.148250000     1.148250000     2.981000000
11 2 -0.950000000     3.444750000     3.444750000     2.981000000
12 1  1.900000000     0.000000000     0.000000000     5.962000000
13 1  1.900000000     2.296500000     2.296500000     7.452500000
14 2 -0.950000000     1.148250000     3.444750000     7.452500000
15 2 -0.950000000     3.444750000     1.148250000     7.452500000
16 2 -0.950000000     1.148250000     1.148250000     5.962000000
17 2 -0.950000000     3.444750000     3.444750000     5.962000000
18 1  1.900000000     0.000000000     0.000000000     8.943000000
19 1  1.900000000     2.296500000     2.296500000    10.433500000
20 2 -0.950000000     1.148250000     3.444750000    10.433500000
21 2 -0.950000000     3.444750000     1.148250000    10.433500000
22 2 -0.950000000     1.148250000     1.148250000     8.943000000
23 2 -0.950000000     3.444750000     3.444750000     8.943000000
24 1  1.900000000     0.000000000     0.000000000    11.924000000
25 1  1.900000000     2.296500000     2.296500000    13.414500000
26 2 -0.950000000     1.148250000     3.444750000    13.414500000
27 2 -0.950000000     3.444750000     1.148250000    13.414500000
28 2 -0.950000000     1.148250000     1.148250000    11.924000000
29 2 -0.950000000     3.444750000     3.444750000    11.924000000
30 1  1.900000000     0.000000000     0.000000000    14.905000000
31 1  1.900000000     2.296500000     2.296500000    16.395500000
32 2 -0.950000000     1.148250000     3.444750000    16.395500000
33 2 -0.950000000     3.444750000     1.148250000    16.395500000
34 2 -0.950000000     3.444750000     3.444750000    14.905000000
35 1  1.900000000     0.000000000     0.000000000    17.886000000
36 1  1.900000000     2.296500000     2.296500000    19.376500000
37 2 -0.950000000     1.148250000     3.444750000    19.376500000
38 2 -0.950000000     3.444750000     1.148250000    19.376500000
39 2 -0.950000000     1.148250000     1.148250000    17.886000000
40 2 -0.950000000     3.444750000     3.444750000    17.886000000
41 1  1.900000000     0.000000000     0.000000000    20.867000000
42 1  1.900000000     2.296500000     2.296500000    22.357500000
43 2 -0.950000000     1.148250000     3.444750000    22.357500000
44 2 -0.950000000     3.444750000     1.148250000    22.357500000
45 2 -0.950000000     1.148250000     1.148250000    20.867000000
46 2 -0.950000000     3.444750000     3.444750000    20.867000000
47 1  1.900000000     0.000000000     0.000000000    23.848000000
48 1  1.900000000     2.296500000     2.296500000    25.338500000
49 2 -0.950000000     1.148250000     3.444750000    25.338500000
50 2 -0.950000000     3.444750000     1.148250000    25.338500000
51 2 -0.950000000     1.148250000     1.148250000    23.848000000
52 2 -0.950000000     3.444750000     3.444750000    23.848000000
53 1  1.900000000     0.000000000     0.000000000    26.829000000
54 1  1.900000000     2.296500000     2.296500000    28.319500000
55 2 -0.950000000     1.148250000     3.444750000    28.319500000
56 2 -0.950000000     3.444750000     1.148250000    28.319500000
57 2 -0.950000000     1.148250000     1.148250000    26.829000000
58 2 -0.950000000     3.444750000     3.444750000    26.829000000
59 1  1.900000000     0.000000000     0.000000000    29.810000000
60 1  1.900000000     2.296500000     2.296500000    31.300500000
61 2 -0.950000000     1.148250000     3.444750000    31.300500000
62 2 -0.950000000     3.444750000     1.148250000    31.300500000
63 2 -0.950000000     1.148250000     1.148250000    29.810000000
64 2 -0.950000000     3.444750000     3.444750000    29.810000000
65 1  1.900000000     0.000000000     0.000000000    32.791000000
66 1  1.900000000     2.296500000     2.296500000    34.281500000
67 2 -0.950000000     1.148250000     3.444750000    34.281500000
68 2 -0.950000000     3.444750000     1.148250000    34.281500000
69 2 -0.950000000     1.148250000     1.148250000    32.791000000
70 1  1.900000000     0.000000000     0.000000000    35.772000000
71 1  1.900000000     2.296500000     2.296500000    37.262500000
72 2 -0.950000000     1.148250000     3.444750000    37.262500000
73 2 -0.950000000     3.444750000     1.148250000    37.262500000
74 2 -0.950000000     1.148250000     1.148250000    35.772000000
75 2 -0.950000000     3.444750000     3.444750000    35.772000000
76 1  1.900000000     0.000000000     0.000000000    38.753000000
77 1  1.900000000     2.296500000     2.296500000    40.243500000
78 2 -0.950000000     1.148250000     3.444750000    40.243500000
79 2 -0.950000000     3.444750000     1.148250000    40.243500000
80 2 -0.950000000     1.148250000     1.148250000    38.753000000
81 2 -0.950000000     3.444750000     3.444750000    38.753000000
82 1  1.900000000     0.000000000     0.000000000    41.734000000
83 1  1.900000000     2.296500000     2.296500000    43.224500000
84 2 -0.950000000     1.148250000     3.444750000    43.224500000
85 2 -0.950000000     3.444750000     1.148250000    43.224500000
86 2 -0.950000000     1.148250000     1.148250000    41.734000000
87 2 -0.950000000     3.444750000     3.444750000    41.734000000
88 1  1.900000000     0.000000000     0.000000000    44.715000000
89 1  1.900000000     2.296500000     2.296500000    46.205500000
90 2 -0.950000000     1.148250000     3.444750000    46.205500000
91 2 -0.950000000     3.444750000     1.148250000    46.205500000
92 2 -0.950000000     1.148250000     1.148250000    44.715000000
93 2 -0.950000000     3.444750000     3.444750000    44.715000000
94 1  1.900000000     0.000000000     0.000000000    47.696000000
95 1  1.900000000     2.296500000     2.296500000    49.186500000
96 2 -0.950000000     1.148250000     3.444750000    49.186500000
97 2 -0.950000000     3.444750000     1.148250000    49.186500000
98 2 -0.950000000     1.148250000     1.148250000    47.696000000
99 2 -0.950000000     3.444750000     3.444750000    47.696000000
100 1  1.900000000     0.000000000     0.000000000    50.677000000
101 1  1.900000000     2.296500000     2.296500000    52.167500000
102 2 -0.950000000     1.148250000     3.444750000    52.167500000
103 2 -0.950000000     3.444750000     1.148250000    52.167500000
104 2 -0.950000000     1.148250000     1.148250000    50.677000000
105 1  1.900000000     0.000000000     0.000000000    53.658000000
106 1  1.900000000     2.296500000     2.296500000    55.148500000
107 2 -0.950000000     1.148250000     3.444750000    55.148500000
108 2 -0.950000000     3.444750000     1.148250000    55.148500000
109 2 -0.950000000     1.148250000     1.148250000    53.658000000
110 2 -0.950000000     3.444750000     3.444750000    53.658000000
111 1  1.900000000     0.000000000     0.000000000    56.639000000
112 1  1.900000000     2.296500000     2.296500000    58.129500000
113 2 -0.950000000     1.148250000     3.444750000    58.129500000
114 2 -0.950000000     3.444750000     1.148250000    58.129500000
115 2 -0.950000000     1.148250000     1.148250000    56.639000000
116 2 -0.950000000     3.444750000     3.444750000    56.639000000
117 1  1.900000000     0.000000000     4.593000000     0.000000000
118 1  1.900000000     2.296500000     6.889500000     1.490500000
119 2 -0.950000000     1.148250000     8.037750000     1.490500000
120 2 -0.950000000     3.444750000     5.741250000     1.490500000
121 2 -0.950000000     1.148250000     5.741250000     0.000000000
122 2 -0.950000000     3.444750000     8.037750000     0.000000000
123 1  1.900000000     0.000000000     4.593000000     2.981000000
124 1  1.900000000     2.296500000     6.889500000     4.471500000
125 2 -0.950000000     1.148250000     8.037750000     4.471500000
126 2 -0.950000000     3.444750000     5.741250000     4.471500000
127 2 -0.950000000     1.148250000     5.741250000     2.981000000
128 2 -0.950000000     3.444750000     8.037750000     2.981000000
129 1  1.900000000     0.000000000     4.593000000     5.962000000
130 1  1.900000000     2.296500000     6.889500000     7.452500000
131 2 -0.950000000     1.148250000     8.037750000     7.452500000
132 2 -0.950000000     3.444750000     5.741250000     7.452500000
133 2 -0.950000000     1.148250000     5.741250000     5.962000000
134 1  1.900000000     0.000000000     4.593000000     8.943000000
135 1  1.900000000     2.296500000     6.889500000    10.433500000
136 2 -0.950000000     1.148250000     8.037750000    10.433500000
137 2 -0.950000000     3.444750000     5.741250000    10.433500000
138 2 -0.950000000     1.148250000     5.741250000     8.943000000
139 2 -0.950000000     3.444750000     8.037750000     8.943000000
140 1  1.900000000     0.000000000     4.593000000    11.924000000
141 1  1.900000000     2.296500000     6.889500000    13.414500000
142 2 -0.950000000     1.148250000     8.037750000    13.414500000
143 2 -0.950000000     3.444750000     5.741250000    13.414500000
144 2 -0.950000000     1.148250000     5.741250000    11.924000000
145 2 -0.950000000     3.444750000     8.037750000    11.924000000
146 1  1.900000000     0.000000000     4.593000000    14.905000000
147 1  1.900000000     2.296500000     6.889500000    16.395500000
148 2 -0.950000000     1.148250000     8.037750000    16.395500000
149 2 -0.950000000     3.444750000     5.741250000    16.395500000
150 2 -0.950000000     1.148250000     5.741250000    14.905000000
151 2 -0.950000000     3.444750000     8.037750000    14.905000000
152 1  1.900000000     0.000000000     4.593000000    17.886000000
153 1  1.900000000     2.296500000     6.889500000    19.376500000
154 2 -0.950000000     1.148250000     8.037750000    19.376500000
155 2 -0.950000000     3.444750000     5.741250000    19.376500000
156 2 -0.950000000     1.148250000     5.741250000    17.886000000
157 2 -0.950000000     3.444750000     8.037750000    17.886000000
158 1  1.900000000     0.000000000     4.593000000    20.867000000
159 1  1.900000000     2.296500000     6.889500000    22.357500000
160 2 -0.950000000     1.148250000     8.037750000    22.357500000
161 2 -0.950000000     3.444750000     5.741250000    22.357500000
162 2 -0.950000000     1.148250000     5.741250000    20.867000000
163 1  1.900000000     0.000000000     4.593000000    23.848000000
164 1  1.900000000     2.296500000     6.889500000    25.338500000
165 2 -0.950000000     1.148250000     8.037750000    25.338500000
166 2 -0.950000000     3.444750000     5.741250000    25.338500000
167 2 -0.950000000     1.148250000     5.741250000    23.848000000
168 2 -0.950000000     3.444750000     8.037750000    23.848000000
169 1  1.900000000     0.000000000     4.593000000    26.829000000
170 1  1.900000000     2.296500000     6.889500000    28.319500000
171 2 -0.950000000     1.148250000     8.037750000    28.319500000
172 2 -0.950000000     3.444750000     5.741250000    28.319500000
173 2 -0.950000000     1.148250000     5.741250000    26.829000000
174 2 -0.950000000     3.444750000     8.037750000    26.829000000
175 1  1.900000000     0.000000000     4.593000000    29.810000000
176 1  1.900000000     2.296500000     6.889500000    31.300500000
177 2 -0.950000000     1.148250000     8.037750000    31.300500000
178 2 -0.950000000     3.444750000     5.741250000    31.300500000
179 2 -0.950000000     1.148250000     5.741250000    29.810000000
180 2 -0.950000000     3.444750000     8.037750000    29.810000000
181 1  1.900000000     0.000000000     4.593000000    32.791000000
182 1  1.900000000     2.296500000     6.889500000    34.281500000
183 2 -0.950000000     1.148250000     8.037750000    34.281500000
184 2 -0.950000000     3.444750000     5.741250000    34.281500000
185 2 -0.950000000     1.148250000     5.741250000    32.791000000
186 2 -0.950000000     3.444750000     8.037750000    32.791000000
187 1  1.900000000     0.000000000     4.593000000    35.772000000
188 1  1.900000000     2.296500000     6.889500000    37.262500000
189 2 -0.950000000     1.148250000     8.037750000    37.262500000
190 2 -0.950000000     3.444750000     5.741250000    37.262500000
191 2 -0.950000000     3.444750000     8.037750000    35.772000000
192 1  1.900000000     0.000000000     4.593000000    38.753000000
193 1  1.900000000     2.296500000     6.889500000    40.243500000
194 2 -0.950000000     1.148250000     8.037750000    40.243500000
195 2 -0.950000000     3.444750000     5.741250000    40.243500000
196 2 -0.950000000     1.148250000     5.741250000    38.753000000
197 2 -0.950000000     3.444750000     8.037750000    38.753000000
198 1  1.900000000     0.000000000     4.593000000    41.734000000
199 1  1.900000000     2.296500000     6.889500000    43.224500000
200 2 -0.950000000     1.148250000     8.037750000    43.224500000
201 2 -0.950000000     3.444750000     5.741250000    43.224500000
202 2 -0.950000000     1.148250000     5.741250000    41.734000000
203 2 -0.950000000     3.444750000     8.037750000    41.734000000
204 1  1.900000000     0.000000000     4.593000000    44.715000000
205 1  1.900000000     2.296500000     6.889500000    46.205500000
206 2 -0.950000000     1.148250000     8.037750000    46.205500000
207 2 -0.950000000     3.444750000     5.741250000    46.205500000
208 2 -0.950000000     1.148250000     5.741250000    44.715000000
209 2 -0.950000000     3.444750000     8.037750000    44.715000000
210 1  1.900000000     0.000000000     4.593000000    47.696000000
211 1  1.900000000     2.296500000     6.889500000    49.186500000
212 2 -0.950000000     1.148250000     8.037750000    49.186500000
213 2 -0.950000000     3.444750000     5.741250000    49.186500000
214 2 -0.950000000     1.148250000     5.741250000    47.696000000
215 2 -0.950000000     3.444750000     8.037750000    47.696000000
216 1  1.900000000     0.000000000     4.593000000    50.677000000
217 1  1.900000000     2.296500000     6.889500000    52.167500000
218 2 -0.950000000     1.148250000     8.037750000    52.167500000
219 2 -0.950000000     3.444750000     5.741250000    52.167500000
220 2 -0.950000000     1.148250000     5.741250000    50.677000000
221 2 -0.950000000     3.444750000     8.037750000    50.677000000
222 1  1.900000000     0.000000000     4.593000000    53.658000000
223 1  1.900000000     2.296500000     6.889500000    55.148500000
224 2 -0.950000000     1.148250000     8.037750000    55.148500000
225 2 -0.950000000     3.444750000     5.741250000    55.148500000
226 2 -0.950000000     3.444750000     8.037750000    53.658000000
227 1  1.900000000     0.000000000     4.593000000    56.639000000
228 1  1.900000000     2.296500000     6.889500000    58.129500000
229 2 -0.950000000     1.148250000     8.037750000    58.129500000
230 2 -0.950000000     3.444750000     5.741250000    58.129500000
231 2 -0.950000000     1.148250000     5.741250000    56.639000000
232 2 -0.950000000     3.444750000     8.037750000    56.639000000
233 1  1.900000000     0.000000000     9.186000000     0.000000000
234 1  1.900000000     2.296500000    11.482500000     1.490500000
235 2 -0.950000000     1.148250000    12.630750000     1.490500000
236 2 -0.950000000     3.444750000    10.334250000     1.490500000
237 2 -0.950000000     1.148250000    10.334250000     0.000000000
238 2 -0.950000000     3.444750000    12.630750000     0.000000000
239 1  1.900000000     0.000000000     9.186000000     2.981000000
240 1  1.900000000     2.296500000    11.482500000     4.471500000
241 2 -0.950000000     1.148250000    12.630750000     4.471500000
242 2 -0.950000000     3.444750000    10.334250000     4.471500000
243 2 -0.950000000     1.148250000    10.334250000     2.981000000
244 2 -0.950000000     3.444750000    12.630750000     2.981000000
245 1  1.900000000     0.000000000     9.186000000     5.962000000
246 1  1.900000000     2.296500000    11.482500000     7.452500000
247 2 -0.950000000     1.148250000    12.630750000     7.452500000
248 2 -0.950000000     3.444750000    10.334250000     7.452500000
249 2 -0.950000000     1.148250000    10.334250000     5.962000000
250 2 -0.950000000     3.444750000    12.630750000     5.962000000
251 1  1.900000000     0.000000000     9.186000000     8.943000000
252 1  1.900000000     2.296500000    11.482500000    10.433500000
253 2 -0.950000000     1.148250000    12.630750000    10.433500000
254 2 -0.950000000     3.444750000    10.334250000    10.433500000
255 2 -0.950000000     3.444750000    12.630750000     8.943000000
256 1  1.900000000     0.000000000     9.186000000    11.924000000
257 1  1.900000000     2.296500000    11.482500000    13.414500000
258 2 -0.950000000     1.148250000    12.630750000    13.414500000
259 2 -0.950000000     3.444750000    10.334250000    13.414500000
260 2 -0.950000000     1.148250000    10.334250000    11.924000000
261 2 -0.950000000     3.444750000    12.630750000    11.924000000
262 1  1.900000000     0.000000000     9.186000000    14.905000000
263 1  1.900000000     2.296500000    11.482500000    16.395500000
264 2 -0.950000000     1.148250000    12.630750000    16.395500000
265 2 -0.950000000     3.444750000    10.334250000    16.395500000
266 2 -0.950000000     1.148250000    10.334250000    14.905000000
267 2 -0.950000000     3.444750000    12.630750000    14.905000000
268 1  1.900000000     0.000000000     9.186000000    17.886000000
269 1  1.900000000     2.296500000    11.482500000    19.376500000
270 2 -0.950000000     1.148250000    12.630750000    19.376500000
271 2 -0.950000000     3.444750000    10.334250000    19.376500000
272 2 -0.950000000     1.148250000    10.334250000    17.886000000
273 2 -0.950000000     3.444750000    12.630750000    17.886000000
274 1  1.900000000     0.000000000     9.186000000    20.867000000
275 1  1.900000000     2.296500000    11.482500000    22.357500000
276 2 -0.950000000     1.148250000    12.630750000    22.357500000
277 2 -0.950000000     3.444750000    10.334250000    22.357500000
278 2 -0.950000000     1.148250000    10.334250000    20.867000000
279 2 -0.950000000     3.444750000    12.630750000    20.867000000
280 1  1.900000000     0.000000000     9.186000000    23.848000000
281 1  1.900000000     2.296500000    11.482500000    25.338500000
282 2 -0.950000000     1.148250000    12.630750000    25.338500000
283 2 -0.950000000     3.444750000    10.334250000    25.338500000
284 2 -0.950000000     3.444750000    12.630750000    23.848000000
285 1  1.900000000     0.000000000     9.186000000    26.829000000
286 1  1.900000000     2.296500000    11.482500000    28.319500000
287 2 -0.950000000     1.148250000    12.630750000    28.319500000
288 2 -0.950000000     3.444750000    10.334250000    28.319500000
289 2 -0.950000000     1.148250000    10.334250000    26.829000000
290 2 -0.950000000     3.444750000    12.630750000    26.829000000
291 1  1.900000000     0.000000000     9.186000000    29.810000000
292 1  1.900000000     2.296500000    11.482500000    31.300500000
293 2 -0.950000000     1.148250000    12.630750000    31.300500000
294 2 -0.950000000     3.444750000    10.334250000    31.300500000
295 2 -0.950000000     1.148250000    10.334250000    29.810000000
296 2 -0.950000000     3.444750000    12.630750000    29.810000000
297 1  1.900000000     0.000000000     9.186000000    32.791000000
298 1  1.900000000     2.296500000    11.482500000    34.281500000
299 2 -0.950000000     1.148250000    12.630750000    34.281500000
300 2 -0.950000000     3.444750000    10.334250000    34.281500000
301 2 -0.950000000     1.148250000    10.334250000    32.791000000
302 2 -0.950000000     3.444750000    12.630750000    32.791000000
303 1  1.900000000     0.000000000     9.186000000    35.772000000
304 1  1.900000000     2.296500000    11.482500000    37.262500000
305 2 -0.950000000     1.148250000    12.630750000    37.262500000
306 2 -0.950000000     3.444750000    10.334250000    37.262500000
307 2 -0.950000000     1.148250000    10.334250000    35.772000000
308 2 -0.950000000     3.444750000    12.630750000    35.772000000
309 1  1.900000000     0.000000000     9.186000000    38.753000000
310 1  1.900000000     2.296500000    11.482500000    40.243500000
311 2 -0.950000000     1.148250000    12.630750000    40.243500000
312 2 -0.950000000     3.444750000    10.334250000    40.243500000
313 2 -0.950000000     1.148250000    10.334250000    38.753000000
314 2 -0.950000000     3.444750000    12.630750000    38.753000000
315 1  1.900000000     0.000000000     9.186000000    41.734000000
316 1  1.900000000     2.296500000    11.482500000    43.224500000
317 2 -0.950000000     1.148250000    12.630750000    43.224500000
318 2 -0.950000000     3.444750000    10.334250000    43.224500000
319 2 -0.950000000     1.148250000    10.334250000    41.734000000
320 1  1.900000000     0.000000000     9.186000000    44.715000000
321 1  1.900000000     2.296500000    11.482500000    46.205500000
322 2 -0.950000000     1.148250000    12.630750000    46.205500000
323 2 -0.950000000     3.444750000    10.334250000    46.205500000
324 2 -0.950000000     1.148250000    10.334250000    44.715000000
325 2 -0.950000000     3.444750000    12.630750000    44.715000000
326 1  1.900000000     0.000000000     9.186000000    47.696000000
327 1  1.900000000     2.296500000    11.482500000    49.186500000
328 2 -0.950000000     1.148250000    12.630750000    49.186500000
329 2 -0.950000000     3.444750000    10.334250000    49.186500000
330 2 -0.950000000     1.148250000    10.334250000    47.696000000
331 2 -0.950000000     3.444750000    12.630750000    47.696000000
332 1  1.900000000     0.000000000     9.186000000    50.677000000
333 1  1.900000000     2.296500000    11.482500000    52.167500000
334 2 -0.950000000     1.148250000    12.630750000    52.167500000
335 2 -0.950000000     3.444750000    10.334250000    52.167500000
336 2 -0.950000000     1.148250000    10.334250000    50.677000000
337 2 -0.950000000     3.444750000    12.630750000    50.677000000
338 1  1.900000000     0.000000000     9.186000000    53.658000000
339 1  1.900000000     2.296500000    11.482500000    55.148500000
340 2 -0.950000000     1.148250000    12.630750000    55.148500000
341 2 -0.950000000     3.444750000    10.334250000    55.148500000
342 2 -0.950000000     1.148250000    10.334250000    53.658000000
343 2 -0.950000000     3.444750000    12.630750000    53.658000000
344 1  1.900000000     0.000000000     9.186000000    56.639000000
345 1  1.900000000     2.296500000    11.482500000    58.129500000
346 2 -0.950000000     1.148250000    12.630750000    58.129500000
347 2 -0.950000000     3.444750000    10.334250000    58.129500000
348 2 -0.950000000     1.148250000    10.334250000    56.639000000
349 2 -0.950000000     3.444750000    12.630750000    56.639000000
350 1  1.900000000     0.000000000    13.779000000     0.000000000
351 1  1.900000000     2.296500000    16.075500000     1.490500000
352 2 -0.950000000     1.148250000    17.223750000     1.490500000
353 2 -0.950000000     3.444750000    14.927250000     1.490500000
354 2 -0.950000000     1.148250000    14.927250000     0.000000000
355 1  1.900000000     0.000000000    13.779000000     2.981000000
356 1  1.900000000     2.296500000    16.075500000     4.471500000
357 2 -0.950000000     1.148250000    17.223750000     4.471500000
358 2 -0.950000000     3.444750000    14.927250000     4.471500000
359 2 -0.950000000     1.148250000    14.927250000     2.981000000
360 2 -0.950000000     3.444750000    17.223750000     2.981000000
361 1  1.900000000     0.000000000    13.779000000     5.962000000
362 1  1.900000000     2.296500000    16.075500000     7.452500000
363 2 -0.950000000     1.148250000    17.223750000     7.452500000
364 2 -0.950000000     3.444750000    14.927250000     7.452500000
365 2 -0.950000000     1.148250000    14.927250000     5.962000000
366 2 -0.950000000     3.444750000    17.223750000     5.962000000
367 1  1.900000000     0.000000000    13.779000000     8.943000000
368 1  1.900000000     2.296500000    16.075500000    10.433500000
369 2 -0.950000000     1.148250000    17.223750000    10.433500000
370 2 -0.950000000     3.444750000    14.927250000    10.433500000
371 2 -0.950000000     1.148250000    14.927250000     8.943000000
372 2 -0.950000000     3.444750000    17.223750000     8.943000000
373 1  1.900000000     0.000000000    13.779000000    11.924000000
374 1  1.900000000     2.296500000    16.075500000    13.414500000
375 2 -0.950000000     1.148250000    17.223750000    13.414500000
376 2 -0.950000000     3.444750000    14.927250000    13.414500000
377 2 -0.950000000     1.148250000    14.927250000    11.924000000
378 2 -0.950000000     3.444750000    17.223750000    11.924000000
379 1  1.900000000     0.000000000    13.779000000    14.905000000
380 1  1.900000000     2.296500000    16.075500000    16.395500000
381 2 -0.950000000     1.148250000    17.223750000    16.395500000
382 2 -0.950000000     3.444750000    14.927250000    16.395500000
383 2 -0.950000000     1.148250000    14.927250000    14.905000000
384 1  1.900000000     0.000000000    13.779000000    17.886000000
385 1  1.900000000     2.296500000    16.075500000    19.376500000
386 2 -0.950000000     1.148250000    17.223750000    19.376500000
387 2 -0.950000000     3.444750000    14.927250000    19.376500000
388 2 -0.950000000     1.148250000    14.927250000    17.886000000
389 2 -0.950000000     3.444750000    17.223750000    17.886000000
390 1  1.900000000     0.000000000    13.779000000    20.867000000
391 1  1.900000000     2.296500000    16.075500000    22.357500000
392 2 -0.950000000     1.148250000    17.223750000    22.357500000
393 2 -0.950000000     3.444750000    14.927250000    22.357500000
394 2 -0.950000000     1.148250000    14.927250000    20.867000000
395 2 -0.950000000     3.444750000    17.223750000    20.867000000
396 1  1.900000000     0.000000000    13.779000000    23.848000000
397 1  1.900000000     2.296500000    16.075500000    25.338500000
398 2 -0.950000000     1.148250000    17.223750000    25.338500000
399 2 -0.950000000     3.444750000    14.927250000    25.338500000
400 2 -0.950000000     1.148250000    14.927250000    23.848000000
401 2 -0.950000000     3.444750000    17.223750000    23.848000000
402 1  1.900000000     0.000000000    13.779000000    26.829000000
403 1  1.900000000     2.296500000    16.075500000    28.319500000
404 2 -0.950000000     1.148250000    17.223750000    28.319500000
405 2 -0.950000000     3.444750000    14.927250000    28.319500000
406 2 -0.950000000     1.148250000    14.927250000    26.829000000
407 2 -0.950000000     3.444750000    17.223750000    26.829000000
408 1  1.900000000     0.000000000    13.779000000    29.810000000
409 1  1.900000000     2.296500000    16.075500000    31.300500000
410 2 -0.950000000     1.148250000    17.223750000    31.300500000
411 2 -0.950000000     3.444750000    14.927250000    31.300500000
412 2 -0.950000000     1.148250000    14.927250000    29.810000000
413 1  1.900000000     0.000000000    13.779000000    32.791000000
414 1  1.900000000     2.296500000    16.075500000    34.281500000
415 2 -0.950000000     1.148250000    17.223750000    34.281500000
416 2 -0.950000000     3.444750000    14.927250000    34.281500000
417 2 -0.950000000     1.148250000    14.927250000    32.791000000
418 2 -0.950000000     3.444750000    17.223750000    32.791000000
419 1  1.900000000     0.000000000    13.779000000    35.772000000
420 1  1.900000000     2.296500000    16.075500000    37.262500000
421 2 -0.950000000     1.148250000    17.223750000    37.262500000
422 2 -0.950000000     3.444750000    14.927250000    37.262500000
423 2 -0.950000000     1.148250000    14.927250000    35.772000000
424 2 -0.950000000     3.444750000    17.223750000    35.772000000
425 1  1.900000000     0.000000000    13.779000000    38.753000000
426 1  1.900000000     2.296500000    16.075500000    40.243500000
427 2 -0.950000000     1.148250000    17.223750000    40.243500000
428 2 -0.950000000     3.444750000    14.927250000    40.243500000
429 2 -0.950000000     1.148250000    14.927250000    38.753000000
430 2 -0.950000000     3.444750000    17.223750000    38.753000000
431 1  1.900000000     0.000000000    13.779000000    41.734000000
432 1  1.900000000     2.296500000    16.075500000    43.224500000
433 2 -0.950000000     1.148250000    17.223750000    43.224500000
434 2 -0.950000000     3.444750000    14.927250000    43.224500000
435 2 -0.950000000     1.148250000    14.927250000    41.734000000
436 2 -0.950000000     3.444750000    17.223750000    41.734000000
437 1  1.900000000     0.000000000    13.779000000    44.715000000
438 1  1.900000000     2.296500000    16.075500000    46.205500000
439 2 -0.950000000     1.148250000    17.223750000    46.205500000
440 2 -0.950000000     3.444750000    14.927250000    46.205500000
441 2 -0.950000000     3.444750000    17.223750000    44.715000000
442 1  1.900000000     0.000000000    13.779000000    47.696000000
443 1  1.900000000     2.296500000    16.075500000    49.186500000
444 2 -0.950000000     1.148250000    17.223750000    49.186500000
445 2 -0.950000000     3.444750000    14.927250000    49.186500000
446 2 -0.950000000     1.148250000    14.927250000    47.696000000