# auto generated

3072 atoms
2 atom types

 0.0000000  36.7440000 xlo xhi
 0.0000000  36.7440000 ylo yhi
 0.0000000  23.8480000 zlo zhi

Atoms 

     1  1  1.9000  2.296500000  2.296500000  1.490500000
     2  1  1.9000 27.558000000  4.593000000  5.962000000
     3  1  1.9000  9.186000000 27.558000000  0.000000000
     4  1  1.9000 11.482500000 29.854500000  1.490500000
     5  1  1.9000  9.186000000 22.965000000 20.867000000
     6  1  1.9000 11.482500000 25.261500000 22.357500000
     7  1  1.9000 29.854500000  6.889500000 10.433500000
     8  1  1.9000 27.558000000  4.593000000  8.943000000
     9  1  1.9000 29.854500000  6.889500000  7.452500000
    10  1  1.9000  9.186000000 22.965000000 17.886000000
    11  1  1.9000 29.854500000  6.889500000 13.414500000
    12  1  1.9000 27.558000000  4.593000000 11.924000000
    13  1  1.9000  9.186000000 22.965000000 14.905000000
    14  1  1.9000 11.482500000 25.261500000 16.395500000
    15  1  1.9000  9.186000000 22.965000000 11.924000000
    16  1  1.9000 11.482500000 25.261500000 13.414500000
    17  1  1.9000 29.854500000  6.889500000 16.395500000
    18  1  1.9000 11.482500000 25.261500000 19.376500000
    19  1  1.9000 11.482500000 29.854500000  4.471500000
    20  1  1.9000  9.186000000 27.558000000  2.981000000
    21  1  1.9000 27.558000000  4.593000000  2.981000000
    22  1  1.9000 29.854500000  2.296500000 19.376500000
    23  1  1.9000 27.558000000  0.000000000 17.886000000
    24  1  1.9000  9.186000000 27.558000000 17.886000000
    25  1  1.9000 11.482500000 29.854500000 19.376500000
    26  1  1.9000  9.186000000 27.558000000 14.905000000
    27  1  1.9000 11.482500000 29.854500000 16.395500000
    28  1  1.9000 29.854500000  2.296500000 22.357500000
    29  1  1.9000 27.558000000  0.000000000 20.867000000
    30  1  1.9000  9.186000000 27.558000000 11.924000000
    31  1  1.9000 11.482500000 29.854500000 13.414500000
    32  1  1.9000 29.854500000  6.889500000  1.490500000
    33  1  1.9000 27.558000000  4.593000000  0.000000000
    34  1  1.9000  9.186000000 27.558000000  8.943000000
    35  1  1.9000 11.482500000 29.854500000 10.433500000
    36  1  1.9000  9.186000000 27.558000000  5.962000000
    37  1  1.9000 11.482500000 29.854500000  7.452500000
    38  1  1.9000 29.854500000  6.889500000  4.471500000
    39  1  1.9000 27.558000000  4.593000000 14.905000000
    40  1  1.9000 11.482500000 29.854500000 22.357500000
    41  1  1.9000  9.186000000 22.965000000  8.943000000
    42  1  1.9000 29.854500000  6.889500000 19.376500000
    43  1  1.9000  9.186000000 18.372000000 11.924000000
    44  1  1.9000 11.482500000 20.668500000 13.414500000
    45  1  1.9000  9.186000000 18.372000000  8.943000000
    46  1  1.9000 11.482500000 20.668500000 10.433500000
    47  1  1.9000 29.854500000 11.482500000 10.433500000
    48  1  1.9000 27.558000000  9.186000000  8.943000000
    49  1  1.9000  9.186000000 18.372000000  5.962000000
    50  1  1.9000 27.558000000  9.186000000  5.962000000
    51  1  1.9000 11.482500000 20.668500000  7.452500000
    52  1  1.9000 27.558000000  9.186000000 11.924000000
    53  1  1.9000  9.186000000 18.372000000  2.981000000
    54  1  1.9000 11.482500000 20.668500000  4.471500000
    55  1  1.9000  9.186000000 18.372000000  0.000000000
    56  1  1.9000 11.482500000 20.668500000  1.490500000
    57  1  1.9000 29.854500000 11.482500000 16.395500000
    58  1  1.9000 27.558000000  9.186000000 14.905000000
    59  1  1.9000 29.854500000 11.482500000 13.414500000
    60  1  1.9000 29.854500000 11.482500000  7.452500000
    61  1  1.9000 11.482500000 20.668500000 16.395500000
    62  1  1.9000  9.186000000 18.372000000 14.905000000
    63  1  1.9000 27.558000000  4.593000000 17.886000000
    64  1  1.9000  9.186000000 22.965000000  5.962000000
    65  1  1.9000 11.482500000 25.261500000  7.452500000
    66  1  1.9000  9.186000000 22.965000000  2.981000000
    67  1  1.9000 11.482500000 25.261500000  4.471500000
    68  1  1.9000 29.854500000  6.889500000 22.357500000
    69  1  1.9000 27.558000000  4.593000000 20.867000000
    70  1  1.9000  9.186000000 22.965000000  0.000000000
    71  1  1.9000 11.482500000 25.261500000  1.490500000
    72  1  1.9000 29.854500000 11.482500000  1.490500000
    73  1  1.9000 27.558000000  9.186000000  0.000000000
    74  1  1.9000  9.186000000 18.372000000 20.867000000
    75  1  1.9000 11.482500000 20.668500000 22.357500000
    76  1  1.9000  9.186000000 18.372000000 17.886000000
    77  1  1.9000 11.482500000 20.668500000 19.376500000
    78  1  1.9000 29.854500000 11.482500000  4.471500000
    79  1  1.9000 27.558000000  9.186000000  2.981000000
    80  1  1.9000 11.482500000 25.261500000 10.433500000
    81  1  1.9000  9.186000000 13.779000000 20.867000000
    82  1  1.9000  9.186000000 27.558000000 20.867000000
    83  1  1.9000 29.854500000  2.296500000 16.395500000
    84  1  1.9000 16.075500000  6.889500000  4.471500000
    85  1  1.9000 25.261500000 34.447500000  7.452500000
    86  1  1.9000 22.965000000 32.151000000  5.962000000
    87  1  1.9000 13.779000000  4.593000000  0.000000000
    88  1  1.9000 16.075500000  6.889500000  1.490500000
    89  1  1.9000 13.779000000  0.000000000 20.867000000
    90  1  1.9000 16.075500000  2.296500000 22.357500000
    91  1  1.9000 13.779000000  4.593000000  2.981000000
    92  1  1.9000 25.261500000 34.447500000 10.433500000
    93  1  1.9000 13.779000000  0.000000000 17.886000000
    94  1  1.9000 16.075500000  2.296500000 19.376500000
    95  1  1.9000 25.261500000 34.447500000 13.414500000
    96  1  1.9000 22.965000000 32.151000000 11.924000000
    97  1  1.9000 13.779000000  0.000000000 14.905000000
    98  1  1.9000 16.075500000  2.296500000 16.395500000
    99  1  1.9000 13.779000000  0.000000000 11.924000000
   100  1  1.9000 22.965000000 32.151000000  8.943000000
   101  1  1.9000 22.965000000 32.151000000  2.981000000
   102  1  1.9000 25.261500000 34.447500000  4.471500000
   103  1  1.9000 16.075500000  6.889500000  7.452500000
   104  1  1.9000 13.779000000  4.593000000 20.867000000
   105  1  1.9000 16.075500000  6.889500000 22.357500000
   106  1  1.9000 25.261500000 29.854500000 19.376500000
   107  1  1.9000 22.965000000 27.558000000 17.886000000
   108  1  1.9000 13.779000000  4.593000000 17.886000000
   109  1  1.9000 16.075500000  6.889500000 19.376500000
   110  1  1.9000 13.779000000  4.593000000 14.905000000
   111  1  1.9000 16.075500000  6.889500000 16.395500000
   112  1  1.9000 25.261500000 29.854500000 22.357500000
   113  1  1.9000 22.965000000 27.558000000 20.867000000
   114  1  1.9000 13.779000000  4.593000000 11.924000000
   115  1  1.9000 16.075500000  6.889500000 13.414500000
   116  1  1.9000 25.261500000 34.447500000  1.490500000
   117  1  1.9000 22.965000000 32.151000000  0.000000000
   118  1  1.9000 13.779000000  4.593000000  8.943000000
   119  1  1.9000 16.075500000  6.889500000 10.433500000
   120  1  1.9000 13.779000000  4.593000000  5.962000000
   121  1  1.9000 16.075500000  2.296500000 13.414500000
   122  1  1.9000 27.558000000  0.000000000 14.905000000
   123  1  1.9000 25.261500000 34.447500000 16.395500000
   124  1  1.9000 13.779000000  0.000000000  8.943000000
   125  1  1.9000 29.854500000  2.296500000  7.452500000
   126  1  1.9000 27.558000000  0.000000000  5.962000000
   127  1  1.9000  9.186000000 32.151000000 11.924000000
   128  1  1.9000 11.482500000 34.447500000 13.414500000
   129  1  1.9000  9.186000000 32.151000000  8.943000000
   130  1  1.9000 11.482500000 34.447500000 10.433500000
   131  1  1.9000 29.854500000  2.296500000 10.433500000
   132  1  1.9000 11.482500000 34.447500000 16.395500000
   133  1  1.9000 27.558000000  0.000000000  8.943000000
   134  1  1.9000 11.482500000 34.447500000  7.452500000
   135  1  1.9000 29.854500000  2.296500000 13.414500000
   136  1  1.9000 27.558000000  0.000000000 11.924000000
   137  1  1.9000  9.186000000 32.151000000  2.981000000
   138  1  1.9000 11.482500000 34.447500000  4.471500000
   139  1  1.9000  9.186000000 32.151000000  0.000000000
   140  1  1.9000 11.482500000 34.447500000  1.490500000
   141  1  1.9000  9.186000000 32.151000000  5.962000000
   142  1  1.9000  9.186000000 32.151000000 14.905000000
   143  1  1.9000 27.558000000  0.000000000  2.981000000
   144  1  1.9000 29.854500000  2.296500000  4.471500000
   145  1  1.9000 16.075500000  2.296500000 10.433500000
   146  1  1.9000 25.261500000 34.447500000 19.376500000
   147  1  1.9000 22.965000000 32.151000000 17.886000000
   148  1  1.9000 13.779000000  0.000000000  5.962000000
   149  1  1.9000 16.075500000  2.296500000  7.452500000
   150  1  1.9000 13.779000000  0.000000000  2.981000000
   151  1  1.9000 16.075500000  2.296500000  4.471500000
   152  1  1.9000 25.261500000 34.447500000 22.357500000
   153  1  1.9000 22.965000000 32.151000000 20.867000000
   154  1  1.9000 13.779000000  0.000000000  0.000000000
   155  1  1.9000 16.075500000  2.296500000  1.490500000
   156  1  1.9000 29.854500000  2.296500000  1.490500000
   157  1  1.9000 27.558000000  0.000000000  0.000000000
   158  1  1.9000  9.186000000 32.151000000 20.867000000
   159  1  1.9000 11.482500000 34.447500000 22.357500000
   160  1  1.9000  9.186000000 32.151000000 17.886000000
   161  1  1.9000 11.482500000 34.447500000 19.376500000
   162  1  1.9000 22.965000000 32.151000000 14.905000000
   163  1  1.9000 11.482500000 16.075500000 22.357500000
   164  1  1.9000 29.854500000 11.482500000 19.376500000
   165  1  1.9000 27.558000000  9.186000000 17.886000000
   166  1  1.9000  6.889500000 34.447500000 22.357500000
   167  1  1.9000 29.854500000 25.261500000 10.433500000
   168  1  1.9000 27.558000000 22.965000000  8.943000000
   169  1  1.9000  4.593000000 32.151000000 17.886000000
   170  1  1.9000  6.889500000 34.447500000 19.376500000
   171  1  1.9000 29.854500000 25.261500000 13.414500000
   172  1  1.9000 27.558000000 22.965000000 11.924000000
   173  1  1.9000  4.593000000 32.151000000 20.867000000
   174  1  1.9000  4.593000000 32.151000000 14.905000000
   175  1  1.9000  4.593000000 32.151000000 11.924000000
   176  1  1.9000  6.889500000 34.447500000 13.414500000
   177  1  1.9000 29.854500000 25.261500000 16.395500000
   178  1  1.9000 27.558000000 22.965000000 14.905000000
   179  1  1.9000  4.593000000 32.151000000  8.943000000
   180  1  1.9000  6.889500000 34.447500000 10.433500000
   181  1  1.9000 29.854500000 25.261500000 19.376500000
   182  1  1.9000  6.889500000 34.447500000 16.395500000
   183  1  1.9000 11.482500000  2.296500000  1.490500000
   184  1  1.9000  9.186000000  0.000000000  0.000000000
   185  1  1.9000 27.558000000 22.965000000  5.962000000
   186  1  1.9000  9.186000000  0.000000000 14.905000000
   187  1  1.9000 11.482500000  2.296500000 16.395500000
   188  1  1.9000 29.854500000 20.668500000 22.357500000
   189  1  1.9000 27.558000000 18.372000000 20.867000000
   190  1  1.9000  9.186000000  0.000000000 11.924000000
   191  1  1.9000 11.482500000  2.296500000 13.414500000
   192  1  1.9000 29.854500000 25.261500000  1.490500000
   193  1  1.9000 27.558000000 22.965000000  0.000000000
   194  1  1.9000  9.186000000  0.000000000  8.943000000
   195  1  1.9000 11.482500000  2.296500000 10.433500000
   196  1  1.9000  9.186000000  0.000000000  5.962000000
   197  1  1.9000 11.482500000  2.296500000  7.452500000
   198  1  1.9000 29.854500000 25.261500000  4.471500000
   199  1  1.9000 27.558000000 22.965000000  2.981000000
   200  1  1.9000  9.186000000  0.000000000  2.981000000
   201  1  1.9000 11.482500000  2.296500000  4.471500000
   202  1  1.9000 29.854500000 25.261500000  7.452500000
   203  1  1.9000 27.558000000 22.965000000 17.886000000
   204  1  1.9000 11.482500000  2.296500000 19.376500000
   205  1  1.9000  4.593000000 32.151000000  5.962000000
   206  1  1.9000  4.593000000 32.151000000  2.981000000
   207  1  1.9000 29.854500000 29.854500000 10.433500000
   208  1  1.9000 27.558000000 27.558000000  8.943000000
   209  1  1.9000  4.593000000 27.558000000  5.962000000
   210  1  1.9000  6.889500000 29.854500000  7.452500000
   211  1  1.9000 29.854500000 29.854500000 13.414500000
   212  1  1.9000 27.558000000 27.558000000 11.924000000
   213  1  1.9000  4.593000000 27.558000000  2.981000000
   214  1  1.9000  6.889500000 29.854500000 10.433500000
   215  1  1.9000  6.889500000 29.854500000  4.471500000
   216  1  1.9000  6.889500000 29.854500000  1.490500000
   217  1  1.9000 29.854500000 29.854500000 16.395500000
   218  1  1.9000 27.558000000 27.558000000 14.905000000
   219  1  1.9000  4.593000000 22.965000000 20.867000000
   220  1  1.9000  6.889500000 25.261500000 22.357500000
   221  1  1.9000 29.854500000 29.854500000 19.376500000
   222  1  1.9000 27.558000000 27.558000000 17.886000000
   223  1  1.9000  4.593000000 27.558000000  0.000000000
   224  1  1.9000  4.593000000 27.558000000  8.943000000
   225  1  1.9000  6.889500000 29.854500000 13.414500000
   226  1  1.9000  4.593000000 27.558000000 11.924000000
   227  1  1.9000  6.889500000 34.447500000  4.471500000
   228  1  1.9000 29.854500000 25.261500000 22.357500000
   229  1  1.9000 27.558000000 22.965000000 20.867000000
   230  1  1.9000  4.593000000 32.151000000  0.000000000
   231  1  1.9000  6.889500000 34.447500000  1.490500000
   232  1  1.9000 29.854500000 29.854500000  1.490500000
   233  1  1.9000 27.558000000 27.558000000  0.000000000
   234  1  1.9000  4.593000000 27.558000000 20.867000000
   235  1  1.9000  6.889500000 29.854500000 22.357500000
   236  1  1.9000  4.593000000 27.558000000 17.886000000
   237  1  1.9000  6.889500000 29.854500000 19.376500000
   238  1  1.9000 29.854500000 29.854500000  4.471500000
   239  1  1.9000 27.558000000 27.558000000  2.981000000
   240  1  1.9000  4.593000000 27.558000000 14.905000000
   241  1  1.9000  6.889500000 29.854500000 16.395500000
   242  1  1.9000 29.854500000 29.854500000  7.452500000
   243  1  1.9000 27.558000000 27.558000000  5.962000000
   244  1  1.9000  6.889500000 34.447500000  7.452500000
   245  1  1.9000  9.186000000  0.000000000 17.886000000
   246  1  1.9000 27.558000000 18.372000000 17.886000000
   247  1  1.9000 29.854500000 20.668500000 19.376500000
   248  1  1.9000  9.186000000 13.779000000  0.000000000
   249  1  1.9000 11.482500000 16.075500000  1.490500000
   250  1  1.9000  9.186000000  9.186000000 20.867000000
   251  1  1.9000 11.482500000 11.482500000 22.357500000
   252  1  1.9000 29.854500000 16.075500000 10.433500000
   253  1  1.9000 27.558000000 13.779000000  8.943000000
   254  1  1.9000  9.186000000  9.186000000 17.886000000
   255  1  1.9000 27.558000000 13.779000000  5.962000000
   256  1  1.9000 11.482500000 11.482500000 19.376500000
   257  1  1.9000 27.558000000 13.779000000 11.924000000
   258  1  1.9000  9.186000000  9.186000000 14.905000000
   259  1  1.9000 11.482500000 11.482500000 16.395500000
   260  1  1.9000  9.186000000  9.186000000 11.924000000
   261  1  1.9000 11.482500000 11.482500000 13.414500000
   262  1  1.9000 29.854500000 16.075500000 16.395500000
   263  1  1.9000 27.558000000 13.779000000 14.905000000
   264  1  1.9000 29.854500000 16.075500000 13.414500000
   265  1  1.9000 29.854500000 16.075500000  7.452500000
   266  1  1.9000 11.482500000 16.075500000  4.471500000
   267  1  1.9000  9.186000000 13.779000000  2.981000000
   268  1  1.9000  9.186000000 13.779000000 17.886000000
   269  1  1.9000 11.482500000 16.075500000 19.376500000
   270  1  1.9000  9.186000000 13.779000000 14.905000000
   271  1  1.9000 11.482500000 16.075500000 16.395500000
   272  1  1.9000 29.854500000 11.482500000 22.357500000
   273  1  1.9000 27.558000000  9.186000000 20.867000000
   274  1  1.9000  9.186000000 13.779000000 11.924000000
   275  1  1.9000 11.482500000 16.075500000 13.414500000
   276  1  1.9000 29.854500000 16.075500000  1.490500000
   277  1  1.9000 27.558000000 13.779000000  0.000000000
   278  1  1.9000  9.186000000 13.779000000  8.943000000
   279  1  1.9000 11.482500000 16.075500000 10.433500000
   280  1  1.9000  9.186000000 13.779000000  5.962000000
   281  1  1.9000 11.482500000 16.075500000  7.452500000
   282  1  1.9000 29.854500000 16.075500000  4.471500000
   283  1  1.9000 27.558000000 13.779000000  2.981000000
   284  1  1.9000 18.372000000 27.558000000  8.943000000
   285  1  1.9000  9.186000000  9.186000000  8.943000000
   286  1  1.9000 11.482500000 11.482500000 10.433500000
   287  1  1.9000 29.854500000 16.075500000 19.376500000
   288  1  1.9000 27.558000000 13.779000000 17.886000000
   289  1  1.9000 11.482500000  6.889500000 13.414500000
   290  1  1.9000  9.186000000  4.593000000  8.943000000
   291  1  1.9000 11.482500000  6.889500000 10.433500000
   292  1  1.9000 29.854500000 20.668500000 10.433500000
   293  1  1.9000 27.558000000 18.372000000  8.943000000
   294  1  1.9000  9.186000000  4.593000000  5.962000000
   295  1  1.9000 11.482500000  6.889500000  7.452500000
   296  1  1.9000 29.854500000 20.668500000 13.414500000
   297  1  1.9000 27.558000000 18.372000000 11.924000000
   298  1  1.9000  9.186000000  4.593000000  2.981000000
   299  1  1.9000 11.482500000  6.889500000  4.471500000
   300  1  1.9000  9.186000000  4.593000000  0.000000000
   301  1  1.9000 11.482500000  6.889500000  1.490500000
   302  1  1.9000 29.854500000 20.668500000 16.395500000
   303  1  1.9000 27.558000000 18.372000000 14.905000000
   304  1  1.9000  9.186000000  0.000000000 20.867000000
   305  1  1.9000 11.482500000  2.296500000 22.357500000
   306  1  1.9000  9.186000000  4.593000000 11.924000000
   307  1  1.9000 22.965000000 27.558000000 14.905000000
   308  1  1.9000 27.558000000 18.372000000  5.962000000
   309  1  1.9000 11.482500000  6.889500000 16.395500000
   310  1  1.9000  9.186000000  9.186000000  5.962000000
   311  1  1.9000 11.482500000 11.482500000  7.452500000
   312  1  1.9000  9.186000000  9.186000000  2.981000000
   313  1  1.9000 11.482500000 11.482500000  4.471500000
   314  1  1.9000 29.854500000 16.075500000 22.357500000
   315  1  1.9000 27.558000000 13.779000000 20.867000000
   316  1  1.9000  9.186000000  9.186000000  0.000000000
   317  1  1.9000 11.482500000 11.482500000  1.490500000
   318  1  1.9000 29.854500000 20.668500000  1.490500000
   319  1  1.9000 27.558000000 18.372000000  0.000000000
   320  1  1.9000  9.186000000  4.593000000 20.867000000
   321  1  1.9000 11.482500000  6.889500000 22.357500000
   322  1  1.9000  9.186000000  4.593000000 17.886000000
   323  1  1.9000 11.482500000  6.889500000 19.376500000
   324  1  1.9000 29.854500000 20.668500000  4.471500000
   325  1  1.9000 27.558000000 18.372000000  2.981000000
   326  1  1.9000  9.186000000  4.593000000 14.905000000
   327  1  1.9000 29.854500000 20.668500000  7.452500000
   328  1  1.9000 25.261500000 29.854500000 16.395500000
   329  1  1.9000 16.075500000 11.482500000  1.490500000
   330  1  1.9000 13.779000000  9.186000000  0.000000000
   331  1  1.9000 18.372000000  9.186000000  8.943000000
   332  1  1.9000 20.668500000 11.482500000 10.433500000
   333  1  1.9000 18.372000000  9.186000000  5.962000000
   334  1  1.9000 20.668500000 11.482500000  7.452500000
   335  1  1.9000 25.261500000  6.889500000  4.471500000
   336  1  1.9000 22.965000000  4.593000000  2.981000000
   337  1  1.9000 18.372000000  9.186000000  2.981000000
   338  1  1.9000 22.965000000  4.593000000  0.000000000
   339  1  1.9000 20.668500000 11.482500000  4.471500000
   340  1  1.9000 22.965000000  4.593000000  5.962000000
   341  1  1.9000 18.372000000  9.186000000  0.000000000
   342  1  1.9000 20.668500000 11.482500000  1.490500000
   343  1  1.9000 18.372000000  4.593000000 20.867000000
   344  1  1.9000 20.668500000  6.889500000 22.357500000
   345  1  1.9000 25.261500000  6.889500000 10.433500000
   346  1  1.9000 22.965000000  4.593000000  8.943000000
   347  1  1.9000 25.261500000  6.889500000  7.452500000
   348  1  1.9000 25.261500000  6.889500000  1.490500000
   349  1  1.9000 20.668500000 11.482500000 13.414500000
   350  1  1.9000 18.372000000  9.186000000 11.924000000
   351  1  1.9000 22.965000000  0.000000000 11.924000000
   352  1  1.9000 18.372000000 13.779000000  2.981000000
   353  1  1.9000 20.668500000 16.075500000  4.471500000
   354  1  1.9000 18.372000000 13.779000000  0.000000000
   355  1  1.9000 20.668500000 16.075500000  1.490500000
   356  1  1.9000 25.261500000  2.296500000 16.395500000
   357  1  1.9000 22.965000000  0.000000000 14.905000000
   358  1  1.9000 18.372000000  9.186000000 20.867000000
   359  1  1.9000 20.668500000 11.482500000 22.357500000
   360  1  1.9000 25.261500000  2.296500000 19.376500000
   361  1  1.9000 22.965000000  0.000000000 17.886000000
   362  1  1.9000 18.372000000  9.186000000 17.886000000
   363  1  1.9000 20.668500000 11.482500000 19.376500000
   364  1  1.9000 18.372000000  9.186000000 14.905000000
   365  1  1.9000 20.668500000 11.482500000 16.395500000
   366  1  1.9000 25.261500000  2.296500000 22.357500000
   367  1  1.9000 22.965000000  0.000000000 20.867000000
   368  1  1.9000 18.372000000  4.593000000 17.886000000
   369  1  1.9000 25.261500000  2.296500000 13.414500000
   370  1  1.9000 20.668500000  6.889500000 19.376500000
   371  1  1.9000 22.965000000  4.593000000 11.924000000
   372  1  1.9000 20.668500000  2.296500000 22.357500000
   373  1  1.9000 18.372000000  0.000000000 17.886000000
   374  1  1.9000 20.668500000  2.296500000 19.376500000
   375  1  1.9000 25.261500000 11.482500000  4.471500000
   376  1  1.9000 22.965000000  9.186000000  2.981000000
   377  1  1.9000 18.372000000  0.000000000 14.905000000
   378  1  1.9000 20.668500000  2.296500000 16.395500000
   379  1  1.9000 18.372000000  0.000000000 20.867000000
   380  1  1.9000 25.261500000 11.482500000  7.452500000
   381  1  1.9000 18.372000000  0.000000000 11.924000000
   382  1  1.9000 20.668500000  2.296500000 13.414500000
   383  1  1.9000 18.372000000  0.000000000  8.943000000
   384  1  1.9000 20.668500000  2.296500000 10.433500000
   385  1  1.9000 25.261500000 11.482500000 10.433500000
   386  1  1.9000 22.965000000  9.186000000  8.943000000
   387  1  1.9000 18.372000000  0.000000000  5.962000000
   388  1  1.9000 22.965000000  9.186000000  5.962000000
   389  1  1.9000 22.965000000  9.186000000  0.000000000
   390  1  1.9000 25.261500000 11.482500000  1.490500000
   391  1  1.9000 20.668500000  6.889500000  1.490500000
   392  1  1.9000 18.372000000  4.593000000 14.905000000
   393  1  1.9000 20.668500000  6.889500000 16.395500000
   394  1  1.9000 18.372000000  4.593000000 11.924000000
   395  1  1.9000 20.668500000  6.889500000 13.414500000
   396  1  1.9000 25.261500000  6.889500000 16.395500000
   397  1  1.9000 22.965000000  4.593000000 14.905000000
   398  1  1.9000 18.372000000  4.593000000  8.943000000
   399  1  1.9000 20.668500000  6.889500000 10.433500000
   400  1  1.9000 25.261500000  6.889500000 19.376500000
   401  1  1.9000 22.965000000  4.593000000 17.886000000
   402  1  1.9000 18.372000000  4.593000000  5.962000000
   403  1  1.9000 20.668500000  6.889500000  7.452500000
   404  1  1.9000 18.372000000  4.593000000  2.981000000
   405  1  1.9000 20.668500000  6.889500000  4.471500000
   406  1  1.9000 25.261500000  6.889500000 22.357500000
   407  1  1.9000 22.965000000  4.593000000 20.867000000
   408  1  1.9000 18.372000000  4.593000000  0.000000000
   409  1  1.9000 25.261500000  6.889500000 13.414500000
   410  1  1.9000 20.668500000 16.075500000  7.452500000
   411  1  1.9000 18.372000000 13.779000000  5.962000000
   412  1  1.9000 22.965000000  0.000000000  8.943000000
   413  1  1.9000 20.668500000 25.261500000 13.414500000
   414  1  1.9000 20.668500000 34.447500000  1.490500000
   415  1  1.9000 18.372000000 32.151000000  0.000000000
   416  1  1.9000 18.372000000 22.965000000  8.943000000
   417  1  1.9000 20.668500000 25.261500000 10.433500000
   418  1  1.9000 18.372000000 22.965000000  5.962000000
   419  1  1.9000 20.668500000 25.261500000  7.452500000
   420  1  1.9000 18.372000000 22.965000000 11.924000000
   421  1  1.9000 20.668500000 34.447500000  4.471500000
   422  1  1.9000 18.372000000 22.965000000  2.981000000
   423  1  1.9000 20.668500000 25.261500000  4.471500000
   424  1  1.9000 20.668500000 34.447500000  7.452500000
   425  1  1.9000 18.372000000 32.151000000  5.962000000
   426  1  1.9000 18.372000000 22.965000000  0.000000000
   427  1  1.9000 20.668500000 25.261500000  1.490500000
   428  1  1.9000 18.372000000 18.372000000 20.867000000
   429  1  1.9000 18.372000000 32.151000000  2.981000000
   430  1  1.9000 18.372000000 27.558000000 20.867000000
   431  1  1.9000 20.668500000 29.854500000 22.357500000
   432  1  1.9000 20.668500000 25.261500000 16.395500000
   433  1  1.9000 18.372000000 27.558000000  5.962000000
   434  1  1.9000 20.668500000 29.854500000  7.452500000
   435  1  1.9000 20.668500000 29.854500000 13.414500000
   436  1  1.9000 18.372000000 27.558000000 11.924000000
   437  1  1.9000 18.372000000 27.558000000  2.981000000
   438  1  1.9000 20.668500000 29.854500000  4.471500000
   439  1  1.9000 18.372000000 27.558000000  0.000000000
   440  1  1.9000 20.668500000 29.854500000  1.490500000
   441  1  1.9000 20.668500000 29.854500000 16.395500000
   442  1  1.9000 18.372000000 27.558000000 14.905000000
   443  1  1.9000 18.372000000 22.965000000 20.867000000
   444  1  1.9000 20.668500000 25.261500000 22.357500000
   445  1  1.9000 20.668500000 29.854500000 19.376500000
   446  1  1.9000 18.372000000 27.558000000 17.886000000
   447  1  1.9000 18.372000000 22.965000000 17.886000000
   448  1  1.9000 20.668500000 25.261500000 19.376500000
   449  1  1.9000 18.372000000 22.965000000 14.905000000
   450  1  1.9000 20.668500000 20.668500000 22.357500000
   451  1  1.9000 20.668500000 34.447500000 10.433500000
   452  1  1.9000 18.372000000 32.151000000  8.943000000
   453  1  1.9000 18.372000000 18.372000000 17.886000000
   454  1  1.9000 25.261500000  2.296500000  1.490500000
   455  1  1.9000 22.965000000  0.000000000  0.000000000
   456  1  1.9000 18.372000000 13.779000000 20.867000000
   457  1  1.9000 20.668500000 16.075500000 22.357500000
   458  1  1.9000 18.372000000 13.779000000 17.886000000
   459  1  1.9000 20.668500000 16.075500000 19.376500000
   460  1  1.9000 25.261500000  2.296500000  4.471500000
   461  1  1.9000 22.965000000  0.000000000  2.981000000
   462  1  1.9000 18.372000000 13.779000000 14.905000000
   463  1  1.9000 20.668500000 16.075500000 16.395500000
   464  1  1.9000 25.261500000  2.296500000  7.452500000
   465  1  1.9000 22.965000000  0.000000000  5.962000000
   466  1  1.9000 18.372000000 13.779000000 11.924000000
   467  1  1.9000 20.668500000 16.075500000 13.414500000
   468  1  1.9000 18.372000000 13.779000000  8.943000000
   469  1  1.9000 20.668500000 16.075500000 10.433500000
   470  1  1.9000 25.261500000  2.296500000 10.433500000
   471  1  1.9000 20.668500000 20.668500000  1.490500000
   472  1  1.9000 20.668500000  2.296500000  7.452500000
   473  1  1.9000 18.372000000 18.372000000  0.000000000
   474  1  1.9000 20.668500000 34.447500000 22.357500000
   475  1  1.9000 20.668500000 20.668500000 19.376500000
   476  1  1.9000 20.668500000 34.447500000 13.414500000
   477  1  1.9000 18.372000000 32.151000000 11.924000000
   478  1  1.9000 18.372000000 18.372000000 14.905000000
   479  1  1.9000 20.668500000 20.668500000 16.395500000
   480  1  1.9000 18.372000000 18.372000000 11.924000000
   481  1  1.9000 20.668500000 20.668500000 13.414500000
   482  1  1.9000 20.668500000 34.447500000 16.395500000
   483  1  1.9000 18.372000000 32.151000000 14.905000000
   484  1  1.9000 18.372000000 18.372000000  8.943000000
   485  1  1.9000 20.668500000 20.668500000 10.433500000
   486  1  1.9000 20.668500000 34.447500000 19.376500000
   487  1  1.9000 18.372000000 32.151000000 17.886000000
   488  1  1.9000 18.372000000 18.372000000  5.962000000
   489  1  1.9000 20.668500000 20.668500000  7.452500000
   490  1  1.9000 18.372000000 18.372000000  2.981000000
   491  1  1.9000 20.668500000 20.668500000  4.471500000
   492  1  1.9000 18.372000000 32.151000000 20.867000000
   493  1  1.9000  4.593000000 22.965000000 17.886000000
   494  1  1.9000 25.261500000 11.482500000 13.414500000
   495  1  1.9000 18.372000000  0.000000000  2.981000000
   496  1  1.9000 22.965000000 22.965000000  2.981000000
   497  1  1.9000 13.779000000 18.372000000  2.981000000
   498  1  1.9000 16.075500000 20.668500000  4.471500000
   499  1  1.9000 25.261500000 25.261500000  7.452500000
   500  1  1.9000 22.965000000 22.965000000  5.962000000
   501  1  1.9000 13.779000000 18.372000000  0.000000000
   502  1  1.9000 16.075500000 20.668500000  1.490500000
   503  1  1.9000 25.261500000 25.261500000  4.471500000
   504  1  1.9000 13.779000000 13.779000000 20.867000000
   505  1  1.9000 25.261500000 25.261500000 10.433500000
   506  1  1.9000 22.965000000 22.965000000  8.943000000
   507  1  1.9000 13.779000000 13.779000000 17.886000000
   508  1  1.9000 16.075500000 16.075500000 19.376500000
   509  1  1.9000 25.261500000 25.261500000 13.414500000
   510  1  1.9000 22.965000000 22.965000000 11.924000000
   511  1  1.9000 13.779000000 13.779000000 14.905000000
   512  1  1.9000 16.075500000 16.075500000 22.357500000
   513  1  1.9000 16.075500000 20.668500000  7.452500000
   514  1  1.9000 13.779000000 18.372000000  5.962000000
   515  1  1.9000 16.075500000 20.668500000 10.433500000
   516  1  1.9000 25.261500000 20.668500000 16.395500000
   517  1  1.9000 22.965000000 18.372000000 14.905000000
   518  1  1.9000 13.779000000 18.372000000 20.867000000
   519  1  1.9000 16.075500000 20.668500000 22.357500000
   520  1  1.9000 25.261500000 20.668500000 19.376500000
   521  1  1.9000 22.965000000 18.372000000 17.886000000
   522  1  1.9000 13.779000000 18.372000000 17.886000000
   523  1  1.9000 16.075500000 20.668500000 19.376500000