ITEM: TIMESTEP
0
ITEM: NUMBER OF ATOMS
4374
ITEM: BOX BOUNDS pp pp pp
0.0000000000000000e+00 4.1337000000000003e+01
0.0000000000000000e+00 4.1337000000000003e+01
0.0000000000000000e+00 2.6829000000000001e+01
ITEM: ATOMS id type q 
1 1 1.9006 
2 1 1.9005 
3 1 1.9005 
4 1 1.8937 
5 1 1.9005 
6 1 1.9005 
7 1 1.9005 
8 1 1.9005 
9 1 1.9004 
10 1 1.9011 
11 1 1.9005 
12 1 1.9006 
13 1 1.9005 
14 1 1.9003 
15 1 1.9004 
16 1 1.9005 
17 1 1.9005 
18 1 1.9005 
19 1 1.9005 
20 1 1.9005 
21 1 1.9005 
22 1 1.9005 
23 1 1.9004 
24 1 1.9005 
25 1 1.9005 
26 1 1.9005 
27 1 1.9005 
28 1 1.9006 
29 1 1.8937 
30 1 1.9005 
31 1 1.9004 
32 1 1.9013 
33 1 1.9005 
34 1 1.9005 
35 1 1.9004 
36 1 1.9005 
37 1 1.9006 
38 1 1.9004 
39 1 1.9004 
40 1 1.9003 
41 1 1.9003 
42 1 1.9005 
43 1 1.9004 
44 1 1.9005 
45 1 1.9004 
46 1 1.9011 
47 1 1.9004 
48 1 1.9003 
49 1 1.9005 
50 1 1.9006 
51 1 1.9005 
52 1 1.9010 
53 1 1.9004 
54 1 1.9004 
55 1 1.9004 
56 1 1.9011 
57 1 1.9005 
58 1 1.9005 
59 1 1.9005 
60 1 1.9005 
61 1 1.9006 
62 1 1.9005 
63 1 1.9005 
64 1 1.9004 
65 1 1.9004 
66 1 1.9004 
67 1 1.9006 
68 1 1.9004 
69 1 1.9005 
70 1 1.9004 
71 1 1.9005 
72 1 1.9005 
73 1 1.9004 
74 1 1.9005 
75 1 1.9004 
76 1 1.9005 
77 1 1.9005 
78 1 1.9004 
79 1 1.9005 
80 1 1.9005 
81 1 1.9005 
82 1 1.9005 
83 1 1.9005 
84 1 1.9003 
85 1 1.9004 
86 1 1.9006 
87 1 1.9005 
88 1 1.9006 
89 1 1.9005 
90 1 1.9005 
91 1 1.9005 
92 1 1.9004 
93 1 1.9005 
94 1 1.9006 
95 1 1.9005 
96 1 1.9005 
97 1 1.9004 
98 1 1.9005 
99 1 1.9005 
100 1 1.9006 
101 1 1.9005 
102 1 1.9005 
103 1 1.9005 
104 1 1.9005 
105 1 1.9005 
106 1 1.9004 
107 1 1.9006 
108 1 1.9004 
109 1 1.9005 
110 1 1.9005 
111 1 1.9005 
112 1 1.9005 
113 1 1.9006 
114 1 1.9004 
115 1 1.9005 
116 1 1.9005 
117 1 1.9004 
118 1 1.9006 
119 1 1.9014 
120 1 1.9008 
121 1 1.9014 
122 1 1.9011 
123 1 1.9004 
124 1 1.9002 
125 1 1.9011 
126 1 1.9009 
127 1 1.9004 
128 1 1.9004 
129 1 1.9014 
130 1 1.9008 
131 1 1.9014 
132 1 1.9011 
133 1 1.9010 
134 1 1.9004 
135 1 1.9008 
136 1 1.9008 
137 1 1.9007 
138 1 1.9019 
139 1 1.9004 
140 1 1.9006 
141 1 1.9005 
142 1 1.9005 
143 1 1.8951 
144 1 1.9016 
145 1 1.9049 
146 1 1.9012 
147 1 1.9012 
148 1 1.9007 
149 1 1.9025 
150 1 1.9008 
151 1 1.9011 
152 1 1.9007 
153 1 1.9012 
154 1 1.9006 
155 1 1.9039 
156 1 1.9020 
157 1 1.9004 
158 1 1.9005 
159 1 1.9005 
160 1 1.9005 
161 1 1.7064 
162 1 1.8870 
163 1 1.9004 
164 1 1.9005 
165 1 1.5150 
166 1 1.7263 
167 1 1.9005 
168 1 1.9010 
169 1 1.9004 
170 1 1.9005 
171 1 1.8870 
172 1 1.8779 
173 1 1.9004 
174 1 1.9008 
175 1 1.9005 
176 1 1.9039 
177 1 1.9006 
178 1 1.9005 
179 1 1.9004 
180 1 1.9004 
181 1 1.9004 
182 1 1.9011 
183 1 1.9023 
184 1 1.9006 
185 1 1.9009 
186 1 1.8810 
187 1 1.7312 
188 1 1.9011 
189 1 1.9011 
190 1 1.9010 
191 1 1.8809 
192 1 1.9013 
193 1 1.7323 
194 1 1.9005 
195 1 1.9011 
196 1 1.9014 
197 1 1.9047 
198 1 1.9005 
199 1 1.9008 
200 1 1.9006 
201 1 1.9004 
202 1 1.9008 
203 1 1.9005 
204 1 1.9005 
205 1 1.9005 
206 1 1.9065 
207 1 1.9004 
208 1 1.9006 
209 1 1.9004 
210 1 1.9006 
211 1 1.8828 
212 1 1.6985 
213 1 1.9012 
214 1 1.9011 
215 1 1.9018 
216 1 1.7216 
217 1 1.9024 
218 1 1.9028 
219 1 1.9007 
220 1 1.8937 
221 1 1.9008 
222 1 1.9025 
223 1 1.9013 
224 1 1.9007 
225 1 1.9004 
226 1 1.9006 
227 1 1.9005 
228 1 1.9011 
229 1 1.9005 
230 1 1.9004 
231 1 1.9004 
232 1 1.9024 
233 1 1.9024 
234 1 1.9006 
235 1 1.9004 
236 1 1.9004 
237 1 1.9011 
238 1 1.9004 
239 1 1.9005 
240 1 1.9004 
241 1 1.9007 
242 1 1.9004 
243 1 1.9004 
244 1 1.9003 
245 1 1.9005 
246 1 1.9006 
247 1 1.9005 
248 1 1.9004 
249 1 1.9004 
250 1 1.9006 
251 1 1.9006 
252 1 1.9004 
253 1 1.9005 
254 1 1.9005 
255 1 1.9005 
256 1 1.9006 
257 1 1.9003 
258 1 1.9004 
259 1 1.9005 
260 1 1.9005 
261 1 1.9005 
262 1 1.9005 
263 1 1.9008 
264 1 1.9007 
265 1 1.9011 
266 1 1.9003 
267 1 1.9005 
268 1 1.9005 
269 1 1.9008 
270 1 1.9003 
271 1 1.9006 
272 1 1.9006 
273 1 1.9004 
274 1 1.9004 
275 1 1.9005 
276 1 1.9006 
277 1 1.9004 
278 1 1.9006 
279 1 1.9005 
280 1 1.9005 
281 1 1.9005 
282 1 1.9004 
283 1 1.9005 
284 1 1.9006 
285 1 1.9005 
286 1 1.9008 
287 1 1.9009 
288 1 1.9005 
289 1 1.9004 
290 1 1.9009 
291 1 1.9003 
292 1 1.9006 
293 1 1.9003 
294 1 1.9004 
295 1 1.9005 
296 1 1.9005 
297 1 1.9005 
298 1 1.9006 
299 1 1.9004 
300 1 1.9005 
301 1 1.9005 
302 1 1.9004 
303 1 1.9005 
304 1 1.9005 
305 1 1.9005 
306 1 1.9005 
307 1 1.9005 
308 1 1.9008 
309 1 1.9008 
310 1 1.9005 
311 1 1.9005 
312 1 1.9012 
313 1 1.9019 
314 1 1.9005 
315 1 1.9005 
316 1 1.9005 
317 1 1.9005 
318 1 1.9017 
319 1 1.9004 
320 1 1.9006 
321 1 1.9005 
322 1 1.9005 
323 1 1.9005 
324 1 1.9005 
325 1 1.9004 
326 1 1.9004 
327 1 1.9013 
328 1 1.9007 
329 1 1.9004 
330 1 1.9005 
331 1 1.9028 
332 1 1.9013 
333 1 1.9005 
334 1 1.9004 
335 1 1.9004 
336 1 1.9004 
337 1 1.9031 
338 1 1.8815 
339 1 1.9005 
340 1 1.9005 
341 1 1.9015 
342 1 1.9028 
343 1 1.9005 
344 1 1.9005 
345 1 1.9005 
346 1 1.9005 
347 1 1.9003 
348 1 1.9010 
349 1 1.9005 
350 1 1.9004 
351 1 1.9007 
352 1 1.9005 
353 1 1.9004 
354 1 1.9005 
355 1 1.9010 
356 1 1.9004 
357 1 1.9007 
358 1 1.9005 
359 1 1.7304 
360 1 1.9010 
361 1 1.7304 
362 1 1.8810 
363 1 1.9007 
364 1 1.9006 
365 1 1.9021 
366 1 1.9012 
367 1 1.9006 
368 1 1.9006 
369 1 1.9006 
370 1 1.9008 
371 1 1.9005 
372 1 1.9004 
373 1 1.9005 
374 1 1.9005 
375 1 1.9005 
376 1 1.9004 
377 1 1.9005 
378 1 1.9005 
379 1 1.9005 
380 1 1.9003 
381 1 1.9006 
382 1 1.9004 
383 1 1.9005 
384 1 1.9005 
385 1 1.9004 
386 1 1.9005 
387 1 1.8937 
388 1 1.9005 
389 1 1.8937 
390 1 1.9010 
391 1 1.9005 
392 1 1.9004 
393 1 1.9011 
394 1 1.9006 
395 1 1.9005 
396 1 1.9005 
397 1 1.9004 
398 1 1.9003 
399 1 1.9005 
400 1 1.9005 
401 1 1.9005 
402 1 1.9005 
403 1 1.9005 
404 1 1.9006 
405 1 1.9005 
406 1 1.9004 
407 1 1.9005 
408 1 1.9005 
409 1 1.9006 
410 1 1.9007 
411 1 1.9004 
412 1 1.9006 
413 1 1.9005 
414 1 1.9011 
415 1 1.9011 
416 1 1.9005 
417 1 1.9005 
418 1 1.9005 
419 1 1.9007 
420 1 1.9007 
421 1 1.9010 
422 1 1.9004 
423 1 1.9005 
424 1 1.9006 
425 1 1.9008 
426 1 1.9005 
427 1 1.9004 
428 1 1.9006 
429 1 1.9008 
430 1 1.9007 
431 1 1.9009 
432 1 1.9005 
433 1 1.9005 
434 1 1.9004 
435 1 1.9008 
436 1 1.9004 
437 1 1.9004 
438 1 1.9004 
439 1 1.9005 
440 1 1.9004 
441 1 1.9005 
442 1 1.9005 
443 1 1.9022 
444 1 1.9008 
445 1 1.9005 
446 1 1.9005 
447 1 1.9025 
448 1 1.9007 
449 1 1.9025 
450 1 1.8937 
451 1 1.9005 
452 1 1.9005 
453 1 1.9005 
454 1 1.9006 
455 1 1.9006 
456 1 1.9005 
457 1 1.9004 
458 1 1.9012 
459 1 1.9005 
460 1 1.9007 
461 1 1.9004 
462 1 1.9004 
463 1 1.9005 
464 1 1.9006 
465 1 1.9004 
466 1 1.9012 
467 1 1.9004 
468 1 1.9005 
469 1 1.9004 
470 1 1.9003 
471 1 1.9005 
472 1 1.9004 
473 1 1.9007 
474 1 1.9006 
475 1 1.9004 
476 1 1.9010 
477 1 1.9002 
478 1 1.9017 
479 1 1.9011 
480 1 1.8861 
481 1 1.9014 
482 1 1.9017 
483 1 1.9017 
484 1 1.9006 
485 1 1.9010 
486 1 1.7430 
487 1 1.8870 
488 1 1.9004 
489 1 1.9002 
490 1 1.8864 
491 1 1.8873 
492 1 1.9005 
493 1 1.9005 
494 1 1.9005 
495 1 1.9006 
496 1 1.9004 
497 1 1.9004 
498 1 1.9004 
499 1 1.7311 
500 1 1.9005 
501 1 1.9004 
502 1 1.9004 
503 1 1.9005 
504 1 1.9028 
505 1 1.7322 
506 1 1.9002 
507 1 1.9004 
508 1 1.8951 
509 1 1.9048 
510 1 1.9001 
511 1 1.9004 
512 1 1.9003 
513 1 1.9004 
514 1 1.9008 
515 1 1.9028 
516 1 1.9006 
517 1 1.9005 
518 1 1.9010 
519 1 1.9012 
520 1 1.9004 
521 1 1.9006 
522 1 1.9004 
523 1 1.9005 
524 1 1.9004 
525 1 1.9015 
526 1 1.9025 
527 1 1.9006 
528 1 1.9004 
529 1 1.9011 
530 1 1.9017 
531 1 1.9006 
532 1 1.9005 
533 1 1.9008 
534 1 1.9012 
535 1 1.9007 
536 1 1.9017 
537 1 1.9012 
538 1 1.9011 
539 1 1.9004 
540 1 1.9006 
541 1 1.9010 
542 1 1.8809 
543 1 1.9005 
544 1 1.9010 
545 1 1.9005 
546 1 1.9005 
547 1 1.9006 
548 1 1.9008 
549 1 1.9005 
550 1 1.9004 
551 1 1.9004 
552 1 1.9005 
553 1 1.9006 
554 1 1.9006 
555 1 1.9008 
556 1 1.9005 
557 1 1.9004 
558 1 1.9007 
559 1 1.9011 
560 1 1.9004 
561 1 1.9008 
562 1 1.9012 
563 1 1.9015 
564 1 1.9004 
565 1 1.9009 
566 1 1.8938 
567 1 1.8863 
568 1 1.9004 
569 1 1.8620 
570 1 1.9005 
571 1 1.7429 
572 1 1.9010 
573 1 1.8860 
574 1 1.9005 
575 1 1.9006 
576 1 1.9004 
577 1 1.9009 
578 1 1.9004 
579 1 1.9005 
580 1 1.9006 
581 1 1.9003 
582 1 1.9005 
583 1 1.8937 
584 1 1.9005 
585 1 1.9005 
586 1 1.9023 
587 1 1.9008 
588 1 1.9018 
589 1 1.9010 
590 1 1.9022 
591 1 1.9006 
592 1 1.9008 
593 1 1.9008 
594 1 1.9024 
595 1 1.9010 
596 1 1.9004 
597 1 1.9004 
598 1 1.9004 
599 1 1.9006 
600 1 1.9007 
601 1 1.9009 
602 1 1.9004 
603 1 1.9006 
604 1 1.9004 
605 1 1.9006 
606 1 1.9004 
607 1 1.9005 
608 1 1.9005 
609 1 1.9004 
610 1 1.9005 
611 1 1.9004 
612 1 1.9018 
613 1 1.9004 
614 1 1.9005 
615 1 1.9004 
616 1 1.8938 
617 1 1.9009 
618 1 1.9004 
619 1 1.9011 
620 1 1.9010 
621 1 1.9004 
622 1 1.9004 
623 1 1.9004 
624 1 1.9004 
625 1 1.9004 
626 1 1.9006 
627 1 1.9005 
628 1 1.9005 
629 1 1.9006 
630 1 1.9005 
631 1 1.9005 
632 1 1.9005 
633 1 1.9004 
634 1 1.9005 
635 1 1.9006 
636 1 1.9004 
637 1 1.9005 
638 1 1.9007 
639 1 1.9005 
640 1 1.9007 
641 1 1.9012 
642 1 1.9005 
643 1 1.9004 
644 1 1.9004 
645 1 1.9005 
646 1 1.9005 
647 1 1.9004 
648 1 1.9005 
649 1 1.9007 
650 1 1.9005 
651 1 1.9003 
652 1 1.9005 
653 1 1.9004 
654 1 1.9006 
655 1 1.9003 
656 1 1.9005 
657 1 1.9004 
658 1 1.9005 
659 1 1.9004 
660 1 1.9005 
661 1 1.9005 
662 1 1.9004 
663 1 1.9011 
664 1 1.9006 
665 1 1.9005 
666 1 1.9004 
667 1 1.9005 
668 1 1.9005 
669 1 1.9016 
670 1 1.9013 
671 1 1.9016 
672 1 1.9005 
673 1 1.9004 
674 1 1.9003 
675 1 1.9004 
676 1 1.9004 
677 1 1.9004 
678 1 1.9011 
679 1 1.9004 
680 1 1.9004 
681 1 1.9003 
682 1 1.9006 
683 1 1.9013 
684 1 1.9004 
685 1 1.9005 
686 1 1.9004 
687 1 1.9006 
688 1 1.8951 
689 1 1.9023 
690 1 1.9005 
691 1 1.9005 
692 1 1.8943 
693 1 1.9030 
694 1 1.9005 
695 1 1.9005 
696 1 1.9006 
697 1 1.9005 
698 1 1.8727 
699 1 1.9025 
700 1 1.9005 
701 1 1.9005 
702 1 1.9005 
703 1 1.9004 
704 1 1.9004 
705 1 1.9004 
706 1 1.9004 
707 1 1.9005 
708 1 1.9004 
709 1 1.9004 
710 1 1.9005 
711 1 1.9005 
712 1 1.9005 
713 1 1.9005 
714 1 1.9005 
715 1 1.9004 
716 1 1.9005 
717 1 1.9005 
718 1 1.9005 
719 1 1.9006 
720 1 1.9005 
721 1 1.9005 
722 1 1.9005 
723 1 1.9004 
724 1 1.9004 
725 1 1.9004 
726 1 1.9004 
727 1 1.9004 
728 1 1.9005 
729 1 1.9005 
730 1 1.9005 
731 1 1.9005 
732 1 1.9005 
733 1 1.9005 
734 1 1.9004 
735 1 1.9005 
736 1 1.9005 
737 1 1.9005 
738 1 1.9003 
739 1 1.9005 
740 1 1.9004 
741 1 1.9004 
742 1 1.9005 
743 1 1.9004 
744 1 1.9004 
745 1 1.9005 
746 1 1.9005 
747 1 1.9005 
748 1 1.9005 
749 1 1.9005 
750 1 1.9004 
751 1 1.9004 
752 1 1.9005 
753 1 1.9005 
754 1 1.9005 
755 1 1.9004 
756 1 1.9005 
757 1 1.9005 
758 1 1.9004 
759 1 1.9004 
760 1 1.9005 
761 1 1.9004 
762 1 1.9011 
763 1 1.9005 
764 1 1.8942 
765 1 1.9009 
766 1 1.9006 
767 1 1.9005 
768 1 1.9013 
769 1 1.9007 
770 1 1.9005 
771 1 1.9006 
772 1 1.9004 
773 1 1.9003 
774 1 1.9002 
775 1 1.9003 
776 1 1.9003 
777 1 1.9008 
778 1 1.9005 
779 1 1.9005 
780 1 1.9004 
781 1 1.9011 
782 1 1.9004 
783 1 1.9007 
784 1 1.9005 
785 1 1.9005 
786 1 1.9006 
787 1 1.9005 
788 1 1.9010 
789 1 1.9008 
790 1 1.8938 
791 1 1.9005 
792 1 1.9005 
793 1 1.9004 
794 1 1.9005 
795 1 1.9004 
796 1 1.9005 
797 1 1.9005 
798 1 1.9004 
799 1 1.9005 
800 1 1.9004 
801 1 1.9004 
802 1 1.9004 
803 1 1.9005 
804 1 1.9006 
805 1 1.9003 
806 1 1.9003 
807 1 1.9005 
808 1 1.9004 
809 1 1.9002 
810 1 1.9004 
811 1 1.9004 
812 1 1.9005 
813 1 1.9011 
814 1 1.9004 
815 1 1.9005 
816 1 1.9005 
817 1 1.9006 
818 1 1.9006 
819 1 1.9005 
820 1 1.9005 
821 1 1.9021 
822 1 1.9008 
823 1 1.9005 
824 1 1.9006 
825 1 1.7304 
826 1 1.9010 
827 1 1.7303 
828 1 1.8809 
829 1 1.9005 
830 1 1.9005 
831 1 1.9021 
832 1 1.9010 
833 1 1.9005 
834 1 1.9005 
835 1 1.9006 
836 1 1.9008 
837 1 1.9006 
838 1 1.9004 
839 1 1.9005 
840 1 1.9005 
841 1 1.9006 
842 1 1.9005 
843 1 1.9003 
844 1 1.9005 
845 1 1.9006 
846 1 1.9004 
847 1 1.9004 
848 1 1.9004 
849 1 1.9006 
850 1 1.9012 
851 1 1.9005 
852 1 1.9005 
853 1 1.9004 
854 1 1.9025 
855 1 1.9005 
856 1 1.9025 
857 1 1.9006 
858 1 1.9006 
859 1 1.9006 
860 1 1.9013 
861 1 1.9006 
862 1 1.9005 
863 1 1.9005 
864 1 1.9005 
865 1 1.9009 
866 1 1.9005 
867 1 1.9006 
868 1 1.9006 
869 1 1.9005 
870 1 1.9004 
871 1 1.9005 
872 1 1.9005 
873 1 1.9005 
874 1 1.9005 
875 1 1.9004 
876 1 1.9004 
877 1 1.9025 
878 1 1.9004 
879 1 1.9005 
880 1 1.9004 
881 1 1.9005 
882 1 1.9004 
883 1 1.9004 
884 1 1.9005 
885 1 1.9004 
886 1 1.9008 
887 1 1.9005 
888 1 1.9011 
889 1 1.9005 
890 1 1.9005 
891 1 1.9005 
892 1 1.9008 
893 1 1.9005 
894 1 1.9005 
895 1 1.9006 
896 1 1.9004 
897 1 1.9005 
898 1 1.9006 
899 1 1.9003 
900 1 1.9005 
901 1 1.9005 
902 1 1.9005 
903 1 1.9005 
904 1 1.9005 
905 1 1.9005 
906 1 1.9006 
907 1 1.9005 
908 1 1.9005 
909 1 1.9005 
910 1 1.9010 
911 1 1.9010 
912 1 1.9006 
913 1 1.9004 
914 1 1.8937 
915 1 1.8859 
916 1 1.8937 
917 1 1.7420 
918 1 1.9005 
919 1 1.9004 
920 1 1.9010 
921 1 1.9004 
922 1 1.8859 
923 1 1.9005 
924 1 1.9003 
925 1 1.9011 
926 1 1.9005 
927 1 1.9003 
928 1 1.9005 
929 1 1.9005 
930 1 1.9005 
931 1 1.9004 
932 1 1.9005 
933 1 1.9005 
934 1 1.9004 
935 1 1.9005 
936 1 1.9005 
937 1 1.9005 
938 1 1.8937 
939 1 1.9004 
940 1 1.9006 
941 1 1.9004 
942 1 1.9005 
943 1 1.9009 
944 1 1.9005 
945 1 1.9011 
946 1 1.9005 
947 1 1.9011 
948 1 1.9005 
949 1 1.9005 
950 1 1.9011 
951 1 1.9005 
952 1 1.9004 
953 1 1.8938 
954 1 1.9009 
955 1 1.9005 
956 1 1.9002 
957 1 1.9007 
958 1 1.9005 
959 1 1.9005 
960 1 1.9004 
961 1 1.9005 
962 1 1.9008 
963 1 1.9004 
964 1 1.9004 
965 1 1.9005 
966 1 1.9004 
967 1 1.9008 
968 1 1.9021 
969 1 1.9013 
970 1 1.9010 
971 1 1.9004 
972 1 1.9005 
973 1 1.9004 
974 1 1.9005 
975 1 1.9004 
976 1 1.9005 
977 1 1.9005 
978 1 1.9004 
979 1 1.9003 
980 1 1.9005 
981 1 1.9005 
982 1 1.9005 
983 1 1.9006 
984 1 1.9005 
985 1 1.9005 
986 1 1.9009 
987 1 1.9006 
988 1 1.9004 
989 1 1.9003 
990 1 1.9005 
991 1 1.9005 
992 1 1.9011 
993 1 1.9004 
994 1 1.9005 
995 1 1.9004 
996 1 1.8937 
997 1 1.8809 
998 1 1.9008 
999 1 1.9005 
1000 1 1.9005 
1001 1 1.9004 
1002 1 1.9004 
1003 1 1.9004 
1004 1 1.9004 
1005 1 1.9007 
1006 1 1.9011 
1007 1 1.9005 
1008 1 1.9004 
1009 1 1.9005 
1010 1 1.9006 
1011 1 1.9005 
1012 1 1.9010 
1013 1 1.9007 
1014 1 1.9004 
1015 1 1.9010 
1016 1 1.9005 
1017 1 1.9005 
1018 1 1.9006 
1019 1 1.9005 
1020 1 1.9009 
1021 1 1.9006 
1022 1 1.9010 
1023 1 1.9010 
1024 1 1.9010 
1025 1 1.9009 
1026 1 1.9004 
1027 1 1.9005 
1028 1 1.9006 
1029 1 1.9005 
1030 1 1.7304 
1031 1 1.9005 
1032 1 1.9007 
1033 1 1.9006 
1034 1 1.9005 
1035 1 1.9005 
1036 1 1.8937 
1037 1 1.9005 
1038 1 1.9007 
1039 1 1.9006 
1040 1 1.9004 
1041 1 1.9004 
1042 1 1.9004 
1043 1 1.9004 
1044 1 1.9021 
1045 1 1.9007 
1046 1 1.9005 
1047 1 1.9011 
1048 1 1.9004 
1049 1 1.9004 
1050 1 1.9011 
1051 1 1.9006 
1052 1 1.9005 
1053 1 1.9006 
1054 1 1.9004 
1055 1 1.9006 
1056 1 1.9006 
1057 1 1.9004 
1058 1 1.9004 
1059 1 1.9004 
1060 1 1.9005 
1061 1 1.9005 
1062 1 1.9003 
1063 1 1.9012 
1064 1 1.9008 
1065 1 1.9005 
1066 1 1.9005 
1067 1 1.9010 
1068 1 1.9008 
1069 1 1.9004 
1070 1 1.8810 
1071 1 1.9005 
1072 1 1.9004 
1073 1 1.9004 
1074 1 1.9004 
1075 1 1.9004 
1076 1 1.9006 
1077 1 1.9011 
1078 1 1.9005 
1079 1 1.9004 
1080 1 1.9005 
1081 1 1.9005 
1082 1 1.9005 
1083 1 1.9006 
1084 1 1.9011 
1085 1 1.9006 
1086 1 1.9004 
1087 1 1.9005 
1088 1 1.9008 
1089 1 1.9005 
1090 1 1.9004 
1091 1 1.9010 
1092 1 1.8937 
1093 1 1.9013 
1094 1 1.8938 
1095 1 1.9011 
1096 1 1.9005 
1097 1 1.9008 
1098 1 1.9005 
1099 1 1.9006 
1100 1 1.9005 
1101 1 1.9005 
1102 1 1.9007 
1103 1 1.8810 
1104 1 1.9008 
1105 1 1.9003 
1106 1 1.9005 
1107 1 1.9010 
1108 1 1.9004 
1109 1 1.9005 
1110 1 1.9005 
1111 1 1.9005 
1112 1 1.9011 
1113 1 1.9010 
1114 1 1.9010 
1115 1 1.9005 
1116 1 1.9005 
1117 1 1.9005 
1118 1 1.9004 
1119 1 1.9005 
1120 1 1.9004 
1121 1 1.9005 
1122 1 1.9004 
1123 1 1.9008 
1124 1 1.9005 
1125 1 1.9005 
1126 1 1.9004 
1127 1 1.9005 
1128 1 1.9006 
1129 1 1.9024 
1130 1 1.9005 
1131 1 1.9006 
1132 1 1.9005 
1133 1 1.9005 
1134 1 1.9004 
1135 1 1.9024 
1136 1 1.9008 
1137 1 1.9005 
1138 1 1.9005 
1139 1 1.9005 
1140 1 1.9006 
1141 1 1.9005 
1142 1 1.9003 
1143 1 1.9006 
1144 1 1.9004 
1145 1 1.9005 
1146 1 1.9005 
1147 1 1.9006 
1148 1 1.9006 
1149 1 1.9007 
1150 1 1.9006 
1151 1 1.9006 
1152 1 1.9004 
1153 1 1.9010 
1154 1 1.9004 
1155 1 1.9005 
1156 1 1.9006 
1157 1 1.9004 
1158 1 1.9005 
1159 1 1.9005 
1160 1 1.9005 
1161 1 1.9005 
1162 1 1.9004 
1163 1 1.9006 
1164 1 1.9005 
1165 1 1.8860 
1166 1 1.9004 
1167 1 1.9018 
1168 1 1.9004 
1169 1 1.9013 
1170 1 1.9006 
1171 1 1.9005 
1172 1 1.9008 
1173 1 1.9010 
1174 1 1.9005 
1175 1 1.9018 
1176 1 1.9006 
1177 1 1.9008 
1178 1 1.9005 
1179 1 1.9004 
1180 1 1.9005 
1181 1 1.9004 
1182 1 1.9004 
1183 1 1.9005 
1184 1 1.9005 
1185 1 1.8860 
1186 1 1.9007 
1187 1 1.9005 
1188 1 1.9006 
1189 1 1.9005 
1190 1 1.9006 
1191 1 1.9005 
1192 1 1.7420 
1193 1 1.9004 
1194 1 1.9005 
1195 1 1.9005 
1196 1 1.9006 
1197 1 1.9004 
1198 1 1.9006 
1199 1 1.9004 
1200 1 1.9004 
1201 1 1.9004 
1202 1 1.9006 
1203 1 1.9007 
1204 1 1.9006 
1205 1 1.9003 
1206 1 1.9006 
1207 1 1.9005 
1208 1 1.9006 
1209 1 1.9005 
1210 1 1.9005 
1211 1 1.9006 
1212 1 1.9008 
1213 1 1.9008 
1214 1 1.9005 
1215 1 1.9002 
1216 1 1.9007 
1217 1 1.9003 
1218 1 1.9005 
1219 1 1.9005 
1220 1 1.9004 
1221 1 1.9003 
1222 1 1.9014 
1223 1 1.9005 
1224 1 1.9007 
1225 1 1.9004 
1226 1 1.9005 
1227 1 1.9011 
1228 1 1.9004 
1229 1 1.9005 
1230 1 1.9009 
1231 1 1.9005 
1232 1 1.9005 
1233 1 1.9005 
1234 1 1.9004 
1235 1 1.9013 
1236 1 1.9005 
1237 1 1.9004 
1238 1 1.9004 
1239 1 1.9011 
1240 1 1.9005 
1241 1 1.9008 
1242 1 1.9006 
1243 1 1.9007 
1244 1 1.9005 
1245 1 1.9005 
1246 1 1.9024 
1247 1 1.9024 
1248 1 1.9005 
1249 1 1.9006 
1250 1 1.9003 
1251 1 1.9005 
1252 1 1.9010 
1253 1 1.9018 
1254 1 1.9005 
1255 1 1.9005 
1256 1 1.9007 
1257 1 1.9005 
1258 1 1.9026 
1259 1 1.9005 
1260 1 1.9005 
1261 1 1.9005 
1262 1 1.9005 
1263 1 1.9006 
1264 1 1.9005 
1265 1 1.9016 
1266 1 1.9003 
1267 1 1.9005 
1268 1 1.9005 
1269 1 1.9005 
1270 1 1.9005 
1271 1 1.9004 
1272 1 1.9006 
1273 1 1.9005 
1274 1 1.9005 
1275 1 1.9006 
1276 1 1.9005 
1277 1 1.9005 
1278 1 1.9005 
1279 1 1.9005 
1280 1 1.9005 
1281 1 1.9005 
1282 1 1.9005 
1283 1 1.9008 
1284 1 1.9004 
1285 1 1.9003 
1286 1 1.9004 
1287 1 1.9005 
1288 1 1.9012 
1289 1 1.9003 
1290 1 1.9004 
1291 1 1.9004 
1292 1 1.9005 
1293 1 1.9004 
1294 1 1.9008 
1295 1 1.9028 
1296 1 1.9005 
1297 1 1.9005 
1298 1 1.9003 
1299 1 1.9005 
1300 1 1.9005 
1301 1 1.9005 
1302 1 1.9012 
1303 1 1.9007 
1304 1 1.9004 
1305 1 1.9005 
1306 1 1.9005 
1307 1 1.9005 
1308 1 1.9005 
1309 1 1.9004 
1310 1 1.9006 
1311 1 1.9005 
1312 1 1.9006 
1313 1 1.9006 
1314 1 1.9005 
1315 1 1.9003 
1316 1 1.9005 
1317 1 1.9003 
1318 1 1.9005 
1319 1 1.9004 
1320 1 1.9006 
1321 1 1.9004 
1322 1 1.9005 
1323 1 1.9006 
1324 1 1.9018 
1325 1 1.9005 
1326 1 1.9005 
1327 1 1.9005 
1328 1 1.9006 
1329 1 1.9005 
1330 1 1.9004 
1331 1 1.9004 
1332 1 1.9005 
1333 1 1.9006 
1334 1 1.9006 
1335 1 1.9005 
1336 1 1.9005 
1337 1 1.9005 
1338 1 1.9005 
1339 1 1.9005 
1340 1 1.9004 
1341 1 1.9005 
1342 1 1.9005 
1343 1 1.9004 
1344 1 1.9024 
1345 1 1.9009 
1346 1 1.9005 
1347 1 1.9004 
1348 1 1.9004 
1349 1 1.9003 
1350 1 1.9004 
1351 1 1.9003 
1352 1 1.9005 
1353 1 1.9004 
1354 1 1.9005 
1355 1 1.9006 
1356 1 1.9004 
1357 1 1.9006 
1358 1 1.9005 
1359 1 1.9005 
1360 1 1.9006 
1361 1 1.9004 
1362 1 1.8859 
1363 1 1.9011 
1364 1 1.9006 
1365 1 1.9004 
1366 1 1.9005 
1367 1 1.9004 
1368 1 1.9006 
1369 1 1.9005 
1370 1 1.9005 
1371 1 1.9005 
1372 1 1.7420 
1373 1 1.8938 
1374 1 1.9005 
1375 1 1.9006 
1376 1 1.9004 
1377 1 1.9004 
1378 1 1.9005 
1379 1 1.9005 
1380 1 1.9005 
1381 1 1.9005 
1382 1 1.9005 
1383 1 1.9005 
1384 1 1.9005 
1385 1 1.8860 
1386 1 1.9011 
1387 1 1.9005 
1388 1 1.9006 
1389 1 1.9005 
1390 1 1.9004 
1391 1 1.9005 
1392 1 1.9004 
1393 1 1.9004 
1394 1 1.9008 
1395 1 1.7303 
1396 1 1.9011 
1397 1 1.9019 
1398 1 1.8884 
1399 1 1.9004 
1400 1 1.9004 
1401 1 1.9004 
1402 1 1.9005 
1403 1 1.9005 
1404 1 1.9006 
1405 1 1.9006 
1406 1 1.9004 
1407 1 1.9005 
1408 1 1.9005 
1409 1 1.9005 
1410 1 1.9013 
1411 1 1.9011 
1412 1 1.9005 
1413 1 1.9004 
1414 1 1.9005 
1415 1 1.9004 
1416 1 1.9005 
1417 1 1.8939 
1418 1 1.9005 
1419 1 1.9008 
1420 1 1.9006 
1421 1 1.9006 
1422 1 1.9004 
1423 1 1.9005 
1424 1 1.9004 
1425 1 1.9005 
1426 1 1.9005 
1427 1 1.9005 
1428 1 1.9005 
1429 1 1.9005 
1430 1 1.9004 
1431 1 1.9005 
1432 1 1.9005 
1433 1 1.9005 
1434 1 1.9005 
1435 1 1.9005 
1436 1 1.9005 
1437 1 1.9005 
1438 1 1.9005 
1439 1 1.9005 
1440 1 1.9004 
1441 1 1.9004 
1442 1 1.9005 
1443 1 1.9007 
1444 1 1.9005 
1445 1 1.9005 
1446 1 1.9004 
1447 1 1.9004 
1448 1 1.9006 
1449 1 1.9004 
1450 1 1.9006 
1451 1 1.9004 
1452 1 1.9003 
1453 1 1.9005 
1454 1 1.9005 
1455 1 1.9005 
1456 1 1.8937 
1457 1 1.9005 
1458 1 1.9005 
1459 2 -0.9505 
1460 2 -0.9505 
1461 2 -0.9505 
1462 2 -0.9505 
1463 2 -0.9505 
1464 2 -0.9506 
1465 2 -0.9505 
1466 2 -0.9506 
1467 2 -0.9505 
1468 2 -0.9505 
1469 2 -0.9505 
1470 2 -0.9506 
1471 2 -0.9505 
1472 2 -0.9505 
1473 2 -0.9505 
1474 2 -0.9505 
1475 2 -0.9505 
1476 2 -0.9505 
1477 2 -0.9505 
1478 2 -0.9505 
1479 2 -0.9504 
1480 2 -0.9505 
1481 2 -0.9505 
1482 2 -0.9505 
1483 2 -0.9505 
1484 2 -0.9504 
1485 2 -0.9504 
1486 2 -0.9505 
1487 2 -0.9504 
1488 2 -0.9504 
1489 2 -0.9505 
1490 2 -0.9505 
1491 2 -0.9505 
1492 2 -0.9505 
1493 2 -0.9505 
1494 2 -0.9506 
1495 2 -0.9506 
1496 2 -0.9505 
1497 2 -0.9505 
1498 2 -0.9506 
1499 2 -0.9506 
1500 2 -0.9504 
1501 2 -0.9505 
1502 2 -0.9505 
1503 2 -0.9506 
1504 2 -0.9506 
1505 2 -0.9505 
1506 2 -0.9504 
1507 2 -0.9504 
1508 2 -0.9504 
1509 2 -0.9504 
1510 2 -0.9505 
1511 2 -0.9505 
1512 2 -0.9506 
1513 2 -0.9506 
1514 2 -0.9504 
1515 2 -0.9505 
1516 2 -0.9504 
1517 2 -0.9504 
1518 2 -0.9505 
1519 2 -0.9506 
1520 2 -0.9506 
1521 2 -0.9504 
1522 2 -0.9504 
1523 2 -0.9503 
1524 2 -0.9505 
1525 2 -0.9505 
1526 2 -0.9505 
1527 2 -0.9505 
1528 2 -0.9504 
1529 2 -0.9504 
1530 2 -0.9505 
1531 2 -0.9504 
1532 2 -0.9505 
1533 2 -0.9504 
1534 2 -0.9506 
1535 2 -0.9505 
1536 2 -0.9505 
1537 2 -0.9506 
1538 2 -0.9505 
1539 2 -0.9505 
1540 2 -0.9505 
1541 2 -0.9505 
1542 2 -0.9505 
1543 2 -0.9505 
1544 2 -0.9505 
1545 2 -0.9505 
1546 2 -0.9504 
1547 2 -0.9504 
1548 2 -0.9505 
1549 2 -0.9504 
1550 2 -0.9505 
1551 2 -0.9504 
1552 2 -0.9505 
1553 2 -0.9505 
1554 2 -0.9505 
1555 2 -0.9504 
1556 2 -0.9504 
1557 2 -0.9505 
1558 2 -0.9505 
1559 2 -0.9505 
1560 2 -0.9505 
1561 2 -0.9506 
1562 2 -0.9506 
1563 2 -0.9505 
1564 2 -0.9505 
1565 2 -0.9505 
1566 2 -0.9505 
1567 2 -0.9506 
1568 2 -0.9506 
1569 2 -0.9505 
1570 2 -0.9505 
1571 2 -0.9504 
1572 2 -0.9505 
1573 2 -0.9506 
1574 2 -0.9505 
1575 2 -0.9505 
1576 2 -0.9505 
1577 2 -0.9505 
1578 2 -0.9505 
1579 2 -0.9504 
1580 2 -0.9505 
1581 2 -0.9506 
1582 2 -0.9505 
1583 2 -0.9506 
1584 2 -0.9505 
1585 2 -0.9505 
1586 2 -0.9504 
1587 2 -0.9505 
1588 2 -0.9504 
1589 2 -0.9504 
1590 2 -0.9504 
1591 2 -0.9506 
1592 2 -0.9505 
1593 2 -0.9505 
1594 2 -0.9505 
1595 2 -0.9505 
1596 2 -0.9506 
1597 2 -0.9504 
1598 2 -0.9505 
1599 2 -0.9505 
1600 2 -0.9505 
1601 2 -0.9506 
1602 2 -0.9505 
1603 2 -0.9504 
1604 2 -0.9505 
1605 2 -0.9505 
1606 2 -0.9505 
1607 2 -0.9505 
1608 2 -0.9507 
1609 2 -0.9506 
1610 2 -0.9506 
1611 2 -0.9505 
1612 2 -0.9505 
1613 2 -0.9505 
1614 2 -0.9595 
1615 2 -0.9538 
1616 2 -0.9505 
1617 2 -0.9505 
1618 2 -0.9505 
1619 2 -0.9429 
1620 2 -1.0391 
1621 2 -1.0070 
1622 2 -0.9320 
1623 2 -0.9504 
1624 2 -0.9504 
1625 2 -0.9455 
1626 2 -0.9387 
1627 2 -0.9370 
1628 2 -1.0262 
1629 2 -0.9505 
1630 2 -1.0550 
1631 2 -0.9505 
1632 2 -0.9507 
1633 2 -0.9659 
1634 2 -0.9488 
1635 2 -0.9506 
1636 2 -0.9505 
1637 2 -0.9506 
1638 2 -0.9507 
1639 2 -0.9505 
1640 2 -0.9591 
1641 2 -0.9505 
1642 2 -0.9501 
1643 2 -0.9491 
1644 2 -0.9504 
1645 2 -0.9504 
1646 2 -0.3659 
1647 2 -0.9467 
1648 2 -0.9505 
1649 2 -0.9665 
1650 2 -0.9489 
1651 2 -0.9505 
1652 2 -0.9507 
1653 2 -0.9496 
1654 2 -0.9505 
1655 2 -0.9413 
1656 2 -0.9417 
1657 2 -0.9505 
1658 2 -0.9419 
1659 2 -0.9419 
1660 2 -0.9506 
1661 2 -0.9508 
1662 2 -0.9506 
1663 2 -1.0038 
1664 2 -0.9435 
1665 2 -1.0192 
1666 2 -1.0192 
1667 2 -0.9504 
1668 2 -0.9405 
1669 2 -0.9419 
1670 2 -0.9506 
1671 2 -0.9505 
1672 2 -0.9508 
1673 2 -0.9501 
1674 2 -0.9424 
1675 2 -0.9504 
1676 2 -0.9505 
1677 2 -0.9504 
1678 2 -0.9506 
1679 2 -0.9505 
1680 2 -0.9505 
1681 2 -0.9506 
1682 2 -0.9507 
1683 2 -0.9505 
1684 2 -0.9505 
1685 2 -0.9505 
1686 2 -0.9505 
1687 2 -0.9505 
1688 2 -0.9507 
1689 2 -0.9506 
1690 2 -0.9503 
1691 2 -0.9505 
1692 2 -0.9505 
1693 2 -0.9506 
1694 2 -0.9505 
1695 2 -0.9505 
1696 2 -0.9505 
1697 2 -0.9505 
1698 2 -0.9505 
1699 2 -0.9507 
1700 2 -0.9505 
1701 2 -0.9505 
1702 2 -0.9505 
1703 2 -0.9506 
1704 2 -0.9500 
1705 2 -0.9506 
1706 2 -0.9505 
1707 2 -0.9505 
1708 2 -0.9505 
1709 2 -0.9504 
1710 2 -0.9505 
1711 2 -0.9504 
1712 2 -0.9505 
1713 2 -0.9505 
1714 2 -0.9503 
1715 2 -0.9506 
1716 2 -0.9470 
1717 2 -0.9509 
1718 2 -0.9504 
1719 2 -0.9505 
1720 2 -0.9506 
1721 2 -0.9505 
1722 2 -0.9504 
1723 2 -0.9505 
1724 2 -0.9506 
1725 2 -0.9505 
1726 2 -0.9505 
1727 2 -0.9505 
1728 2 -0.9506 
1729 2 -0.9505 
1730 2 -0.9503 
1731 2 -0.9505 
1732 2 -0.9506 
1733 2 -0.9504 
1734 2 -0.9505 
1735 2 -0.9506 
1736 2 -0.9505 
1737 2 -0.9507 
1738 2 -0.9504 
1739 2 -0.9505 
1740 2 -0.9505 
1741 2 -0.9357 
1742 2 -0.9503 
1743 2 -0.9505 
1744 2 -0.9503 
1745 2 -0.9505 
1746 2 -0.9505 
1747 2 -0.9505 
1748 2 -0.9504 
1749 2 -0.9505 
1750 2 -0.9506 
1751 2 -0.9511 
1752 2 -0.9504 
1753 2 -0.9505 
1754 2 -0.9506 
1755 2 -0.9501 
1756 2 -0.9505 
1757 2 -0.9460 
1758 2 -0.9470 
1759 2 -0.9504 
1760 2 -0.9510 
1761 2 -0.9388 
1762 2 -0.9504 
1763 2 -0.9505 
1764 2 -0.9456 
1765 2 -0.9468 
1766 2 -0.9505 
1767 2 -0.9302 
1768 2 -0.9504 
1769 2 -0.9501 
1770 2 -0.9505 
1771 2 -0.9505 
1772 2 -1.0171 
1773 2 -1.0172 
1774 2 -0.9505 
1775 2 -0.9418 
1776 2 -0.9470 
1777 2 -0.9504 
1778 2 -0.9505 
1779 2 -0.9508 
1780 2 -0.9451 
1781 2 -0.9506 
1782 2 -0.9508 
1783 2 -0.9471 
1784 2 -0.9505 
1785 2 -0.9504 
1786 2 -0.9505 
1787 2 -0.9506 
1788 2 -0.9503 
1789 2 -0.9507 
1790 2 -0.9505 
1791 2 -0.9504 
1792 2 -0.9505 
1793 2 -0.9505 
1794 2 -0.9505 
1795 2 -0.9506 
1796 2 -0.9506 
1797 2 -0.9504 
1798 2 -0.9504 
1799 2 -0.9505 
1800 2 -0.9505 
1801 2 -0.9505 
1802 2 -0.9506 
1803 2 -0.9507 
1804 2 -0.9504 
1805 2 -0.9505 
1806 2 -0.9507 
1807 2 -0.9450 
1808 2 -0.9505 
1809 2 -0.9503 
1810 2 -0.9507 
1811 2 -0.9505 
1812 2 -0.9506 
1813 2 -0.9504 
1814 2 -0.9505 
1815 2 -0.9506 
1816 2 -0.9504 
1817 2 -0.9504 
1818 2 -0.9505 
1819 2 -0.9504 
1820 2 -0.9503 
1821 2 -0.9505 
1822 2 -0.9505 
1823 2 -0.9505 
1824 2 -0.9504 
1825 2 -0.9504 
1826 2 -0.9505 
1827 2 -0.9505 
1828 2 -0.9505 
1829 2 -0.9505 
1830 2 -0.9505 
1831 2 -0.9504 
1832 2 -0.9505 
1833 2 -0.9505 
1834 2 -0.9506 
1835 2 -0.9506 
1836 2 -0.9505 
1837 2 -0.9505 
1838 2 -0.9504 
1839 2 -0.9505 
1840 2 -0.9505 
1841 2 -0.9505 
1842 2 -0.9505 
1843 2 -0.9504 
1844 2 -0.9504 
1845 2 -0.9505 
1846 2 -0.9504 
1847 2 -0.9505 
1848 2 -0.9504 
1849 2 -0.9504 
1850 2 -0.9505 
1851 2 -0.9505 
1852 2 -0.9505 
1853 2 -0.9505 
1854 2 -0.9506 
1855 2 -0.9505 
1856 2 -0.9506 
1857 2 -0.9505 
1858 2 -0.9505 
1859 2 -0.9505 
1860 2 -0.9505 
1861 2 -0.9506 
1862 2 -0.9506 
1863 2 -0.9505 
1864 2 -0.9504 
1865 2 -0.9504 
1866 2 -0.9505 
1867 2 -0.9505 
1868 2 -0.9504 
1869 2 -0.9473 
1870 2 -0.9505 
1871 2 -0.9507 
1872 2 -0.9504 
1873 2 -0.9507 
1874 2 -0.9505 
1875 2 -0.9488 
1876 2 -0.9505 
1877 2 -0.9540 
1878 2 -0.3648 
1879 2 -0.9559 
1880 2 -0.9568 
1881 2 -0.9505 
1882 2 -0.9498 
1883 2 -0.9505 
1884 2 -0.9575 
1885 2 -0.9504 
1886 2 -0.9658 
1887 2 -0.9660 
1888 2 -0.9504 
1889 2 -0.9506 
1890 2 -0.9489 
1891 2 -0.9488 
1892 2 -0.9504 
1893 2 -0.9505 
1894 2 -0.9400 
1895 2 -0.9929 
1896 2 -0.9505 
1897 2 -0.9505 
1898 2 -0.9505 
1899 2 -0.9501 
1900 2 -0.9504 
1901 2 -0.9508 
1902 2 -0.9504 
1903 2 -0.9437 
1904 2 -0.9504 
1905 2 -0.9507 
1906 2 -0.9505 
1907 2 -0.9506 
1908 2 -0.9506 
1909 2 -0.9504 
1910 2 -0.9505 
1911 2 -0.9506 
1912 2 -0.9505 
1913 2 -0.9430 
1914 2 -0.9477 
1915 2 -0.9505 
1916 2 -0.9434 
1917 2 -0.9435 
1918 2 -0.9505 
1919 2 -0.9504 
1920 2 -0.9345 
1921 2 -0.3659 
1922 2 -0.9504 
1923 2 -1.0052 
1924 2 -1.0086 
1925 2 -0.9504 
1926 2 -0.9400 
1927 2 -0.9928 
1928 2 -1.0052 
1929 2 -1.0087 
1930 2 -0.9505 
1931 2 -0.9505 
1932 2 -0.9505 
1933 2 -0.9505 
1934 2 -0.9505 
1935 2 -0.9492 
1936 2 -0.9505 
1937 2 -0.9504 
1938 2 -0.9504 
1939 2 -0.9504 
1940 2 -0.9505 
1941 2 -0.9504 
1942 2 -0.9505 
1943 2 -0.9505 
1944 2 -0.9505 
1945 2 -0.9505 
1946 2 -0.9505 
1947 2 -0.9504 
1948 2 -0.9504 
1949 2 -0.9505 
1950 2 -0.9505 
1951 2 -0.9505 
1952 2 -0.9504 
1953 2 -0.9505 
1954 2 -0.9505 
1955 2 -0.9505 
1956 2 -0.9502 
1957 2 -0.9505 
1958 2 -0.9504 
1959 2 -0.9505 
1960 2 -0.9505 
1961 2 -0.9506 
1962 2 -0.9505 
1963 2 -0.9505 
1964 2 -0.9504 
1965 2 -0.9504 
1966 2 -0.9505 
1967 2 -0.9505 
1968 2 -0.9505 
1969 2 -0.9505 
1970 2 -0.9505 
1971 2 -0.9504 
1972 2 -0.9505 
1973 2 -0.9505 
1974 2 -0.9504 
1975 2 -0.9505 
1976 2 -0.9504 
1977 2 -0.9505 
1978 2 -0.9505 
1979 2 -0.9504 
1980 2 -0.9505 
1981 2 -0.9505 
1982 2 -0.9505 
1983 2 -0.9507 
1984 2 -0.9505 
1985 2 -0.9506 
1986 2 -0.9505 
1987 2 -0.9505 
1988 2 -0.9505 
1989 2 -0.9506 
1990 2 -0.9506 
1991 2 -0.9506 
1992 2 -0.9506 
1993 2 -0.9504 
1994 2 -0.9506 
1995 2 -0.9505 
1996 2 -0.9505 
1997 2 -0.9504 
1998 2 -0.9504 
1999 2 -0.9504 
2000 2 -0.9505 
2001 2 -0.9506 
2002 2 -0.9505 
2003 2 -0.9504 
2004 2 -0.9505 
2005 2 -0.9505 
2006 2 -0.9505 
2007 2 -0.9505 
2008 2 -0.9505 
2009 2 -0.9505 
2010 2 -0.9504 
2011 2 -0.9507 
2012 2 -0.9505 
2013 2 -0.9506 
2014 2 -0.9506 
2015 2 -0.9505 
2016 2 -0.9504 
2017 2 -0.9506 
2018 2 -0.9504 
2019 2 -0.9505 
2020 2 -0.9505 