LAMMPS (20 Nov 2019)

# --------------------------------------------------------------------------------------------------
# rutile TiO2 WITHOUT electric field
# NOTE: according to wikipedia, rutile melts at ~2200 K


# --------------------------------------------------------------------------------------------------
# define simulation domain
# ---Neighbor list info ...
  update every 100 steps, delay 100 steps, check yes
  max neighbors/atom: 2000, page size: 100000
  master list distance cutoff = 13
  ghost atom cutoff = 13
  binsize = 6.5, bins = 7 7 5
  1 neighbor lists, perpetual/occasional/extra = 1 0 0
  (1) pair comb3, perpetual
      attributes: full, newton on, ghost
      pair build: full/bin/ghost
      stencil: full/ghost/bin/3d
      bin: standard
Setting up Verlet run ...
  Unit style    : metal
  Current step  : 0
  Time step     : 0.001
Per MPI rank memory allocation (min/avg/max) = 23.12 | 23.46 | 23.51 Mbytes
Step TotEng Temp PotEng Press Pxx Pyy Pzz Fmax Lx Ly Lz 
       0   -27825.665            0   -27825.665   -26261.819   -24396.741   -24221.851   -30166.863    62.285209       41.337       41.337       26.829 
      10   -27928.647    2.0568685    -27929.81   -33967.131   -34850.187   -34764.912   -32286.295     0.658657       41.337       41.337       26.829 
      20   -27934.792    1.0282713   -27935.373   -35480.197   -36357.018   -36271.318   -33812.255   0.70598393       41.337       41.337       26.829 
      30    -27937.65    0.5935343   -27937.985   -36426.501    -37232.24   -37153.876   -34893.388   0.37446716       41.337       41.337       26.829 
      40   -27939.385   0.36427298   -27939.591   -37128.025     -37869.4   -37795.424   -35719.251    0.2669856       41.337       41.337       26.829 
      50   -27940.504   0.23689134   -27940.637   -37668.036    -38356.17   -38285.266   -36362.673   0.20352708       41.337       41.337       26.829 
      60   -27941.265   0.16257071   -27941.357   -38091.376   -38737.366   -38667.923   -36868.838    0.1528571       41.337       41.337       26.829 
      70   -27941.812   0.11807771   -27941.879    -38419.14   -39032.066   -38962.949   -37262.406   0.12464502       41.337       41.337       26.829 
      80   -27942.227  0.090099027   -27942.278   -38666.528   -39255.194   -39183.629   -37560.762   0.10741177       41.337       41.337       26.829 
      90   -27942.549  0.070649031   -27942.589   -38868.192   -39438.767   -39364.272   -37801.536  0.074769173       41.337       41.337       26.829 
     100   -27942.812   0.05815916   -27942.845   -39018.586   -39575.723   -39497.752   -37982.285  0.047455943       41.337       41.337       26.829 
     110   -27943.035  0.049935247   -27943.063   -39120.364   -39667.311   -39586.148   -38107.631  0.031447184       41.337       41.337       26.829 
     120    -27943.23  0.044059871   -27943.255   -39189.567   -39728.774   -39643.951   -38195.977  0.022285687       41.337       41.337       26.829 
     130   -27943.405  0.039645735   -27943.428   -39234.594   -39767.634   -39679.049     -38257.1  0.016644047       41.337       41.337       26.829 
     140   -27943.565  0.036197562   -27943.585    -39261.37   -39789.319   -39697.243   -38297.549  0.013095577       41.337       41.337       26.829 
     150   -27943.712  0.033413066   -27943.731    -39274.53   -39798.271    -39702.89    -38322.43  0.010931627       41.337       41.337       26.829 
     160   -27943.848  0.031103264   -27943.866   -39277.298   -39797.231   -39699.362   -38335.301  0.009890846       41.337       41.337       26.829 
     170   -27943.976  0.029126133   -27943.993   -39272.577    -39789.12   -39689.193   -38339.417 0.0097785293       41.337       41.337       26.829 
     180   -27944.096  0.027199944   -27944.111   -39263.668   -39777.331   -39675.481   -38338.192  0.013144906       41.337       41.337       26.829 
     190   -27944.209  0.025554201   -27944.224   -39252.327   -39764.217    -39660.08   -38332.685  0.023508232       41.337       41.337       26.829 
     200   -27944.316  0.023965149  in: standard
Per MPI rank memory allocation (min/avg/max) = 23.12 | 23.46 | 23.51 Mbytes
Step TotEng Temp PotEng Press Pxx Pyy Pzz Fmax Lx Ly Lz 
       0   -27825.665            0   -27825.665   -26261.819   -24396.741   -24221.851   -30166.863    62.285209       41.337       41.337       26.829 
      10   -27928.647    2.0568685    -27929.81   -33967.131   -34850.187   -34764.912   -32286.295     0.658657       41.337       41.337       26.829 
      20   -27934.792    1.0282713   -27935.373   -35480.197   -36357.018   -36271.318   -33812.255   0.70598393       41.337       41.337       26.829 
      30    -27937.65    0.5935343   -27937.985   -36426.501    -37232.24   -37153.876   -34893.388   0.37446716       41.33     250   -27944.763  0.017075242   -27944.773   -39163.475   -39667.587   -39555.746   -38267.092  0.016998522       41.337       41.337       26.829 
     260   -27944.837  0.015957218   -27944.846   -39149.533   -39652.591   -39540.268    -38255.74   0.01460139       41.337       41.337       26.829 
     270   -27944.907  0.015094075   -27944.916   -39136.247   -39638.437   -39525.834   -38244.471   0.01265642       41.337       41.337       26.829 
     280   -27944.972  0.014013928    -27944.98     -39125.5   -39627.228   -39514.272   -38234.999  0.023152629       41.337       41.337       26.829 
     290   -27945.034  0.013214133   -27945.041   -39115.947   -39617.693   -39504.386   -38225.762  0.019479963       41.337       41.337       26.829 
     300   -27945.091  0.012349447   -27945.098   -39107.069   -39608.669   -39495.224   -38217.314  0.014888718       41.337       41.337       26.829 
     310   -27945.146  0.011587547   -27945.152   -39098.703   -39600.076   -39486.601   -38209.433  0.011196075       41.337       41.337       26.829 
     320   -27945.197  0.010907796   -27945.203   -39091.185   -39592.292   -39478.944   -38202.318 0.0091280491       41.337       41.337       26.829 
     330   -27945.245  0.010281895   -27945.251   -39084.586   -39585.517   -39472.334   -38195.906 0.0079121601       41.337       41.337       26.829 
     340   -27945.291  0.009682386   -27945.296   -39080.519   -39581.703    -39468.78   -38191.073 0.0070900703       41.337       41.337       26.829 
     350   -27945.334 0.0090858755   -27945.339   -39078.325   -39580.027   -39467.405   -38187.543 0.0064754963       41.337       41.337       26.829 
     360   -27945.374 0.0085542428   -27945.379   -39076.538   -39578.641   -39466.438   -38184.535 0.0059781677       41.337       41.337       26.829 
     370   -27945.413 0.0080739999   -27945.417    -39075.17     -39577.6   -39465.952   -38181.958 0.0057264498       41.337       41.337       26.829 
     380   -27945.449 0.0076374744   -27945.453   -39073.927    -39576.69   -39465.496   -38179.595 0.0056253812       41.337       41.337       26.829 
     390   -27945.483 0.0072376133   -27945.487   -39072.806   -39575.854   -39465.146   -38177.418  0.005520579       41.337       41.337       26.829 
     400   -27945.516  0.006868692   -27945.519    -39071.85   -39575.167   -39464.934   -38175.451 0.0054144651       41.337       41.337       26.829 
     410   -27945.546 0.0065267067    -27945.55   -39071.042   -39574.615   -39464.848   -38173.664  0.005306951       41.337       41.337       26.829 
     420   -27945.576 0.0062087087   -27945.579   -39070.362   -39574.228   -39464.828   -38172.032 0.0051996586       41.337       41.337       26.829 
     430   -27945.603 0.0058510726   -27945.606   -39070.193   -39574.279   -39465.267   -38171.035  0.005182294       41.337       41.337       26.829 
     440    -27945.63 0.0055956018   -27945.633   -39069.738   -39574.066    -39465.46   -38169.689 0.0043515863       41.337       41.337       26.829 
     450   -27945.655 0.0053549532   -27945.658    -39069.26   -39573.816   -39465.621   -38168.344 0.0045456428       41.337       41.337       26.829 
     460   -27945.679 0.0050642739   -27945.681   -39069.306    -39574.01   -39466.271   -38167.636 0.0047693534       41.337       41.337       26.829 
        41.337       26.829 
     260   -27944.837  0.015957218   -27944.846   -39149.533   -39652.591   -39540.268    -38255.74   0.01460139       41.337       41.337       26.829 
     270   -27944.907  0.015094075   -27944.916   -39136.247   -39638.437   -39525.834   -38244.471   0.01265642       41.337       41.337       26.829 
     280   -27944.972  0.014013928    -27944.98     -39125.5   -39627.228   -39514.272   -38234.999  0.023152629       41.337       41.337       26.829 
     290   -27945.034  0.013214133   -27945.041   -39115.947   -39617.693   -39504.386   -38225.762  0.019479963       41.337       41.337       26.829 
     300   -27945.091  0.012349447   -27945.098   -39107.069   -39608.669   -39495.224   -38217.314  0.014888718       41.33     520   -27945.802 0.0039100005   -27945.804   -39069.046   -39574.524   -39469.736   -38162.879 0.0034854507       41.337       41.337       26.829 
     530   -27945.819 0.0037216825   -27945.821   -39069.401   -39574.915    -39470.67   -38162.618 0.0039247546       41.337       41.337       26.829 
     540   -27945.836 0.0036004902   -27945.838   -39069.321    -39574.94   -39471.261   -38161.763 0.0033248589       41.337       41.337       26.829 
     550   -27945.852 0.0034265475   -27945.854   -39069.543    -39575.27    -39472.15   -38161.209 0.0037807226       41.337       41.337       26.829 
     560   -27945.868 0.0033159143    -27945.87   -39069.426   -39575.366   -39472.684   -38160.227 0.0031836625       41.337       41.337       26.829 
     570   -27945.883 0.0031589396   -27945.885   -39069.736   -39575.801   -39473.609   -38159.798 0.0036419804       41.337       41.337       26.829 
     580   -27945.897 0.0030621611   -27945.899   -39069.645   -39575.882   -39474.155   -38158.897 0.0030557557       41.337       41.337       26.829 
     590   -27945.911 0.0029206943   -27945.913   -39069.949   -39576.265    -39475.07   -38158.512 0.0035112299       41.337       41.337       26.829 
     600   -27945.924 0.0027895794   -27945.925   -39070.347   -39576.727   -39476.054   -38158.261 0.0030557729       41.337       41.337       26.829 
     610   -27945.937  0.002718247   -27945.938   -39070.256   -39576.759    -39476.57   -38157.439   0.00255665       41.337       41.337       26.829 
     620   -27945.949 0.0026005942    -27945.95   -39070.521   -39577.056   -39477.423   -38157.083 0.0031887761       41.337       41.337       26.829 
     630   -27945.961 0.0024895092   -27945.962   -39070.869   -39577.428   -39478.334   -38156.846 0.0028243106       41.337       41.337       26.829 
     640   -27945.972 0.0024327314   -27945.974   -39070.736   -39577.374   -39478.786   -38156.048  0.002368483       41.337       41.337       26.829 
     650   -27945.983 0.0023312749   -27945.984   -39070.995   -39577.666   -39479.576   -38155.744 0.0030186396       41.337       41.337       26.829 
     660   -27945.993 0.0022349272   -27945.995   -39071.372   -39578.076   -39480.463   -38155.576 0.0026717878       41.337       41.337       26.829 
     670   -27946.004 0.0021883978   -27946.005   -39071.305   -39578.065   -39480.972   -38154.879 0.0022260622       41.337       41.337       26.829 
     680   -27946.013 0.0020808651   -27946.015   -39071.849   -39578.562   -39482.037   -38154.949 0.0029303949       41.337       41.337       26.829 
     690   -27946.023 0.0020394651   -27946.024   -39071.794   -39578.551   -39482.537   -38154.294  0.002051059       41.337       41.337       26.829 
     700   -27946.032 0.0019415301   -27946.033   -39072.329   -39579.026   -39483.574   -38154.386 0.0027605693       41.337       41.337       26.829 
     710   -27946.041 0.0019061378   -27946.042   -39072.285   -39578.998   -39484.086   -38153.771 0.0019231841       41.337       41.337       26.829 
     720    -27946.05 0.0018161456   -27946.051   -39072.835   -39579.453   -39485.148   -38153.905  0.002651481       41.337       41.337       26.829 
     730   -27946.058 0.0017497507   -27946.059   -39073.297   -39579.833   -39486.126   -38153.932 0.0019723607       38162.879 0.0034854507       41.337       41.337       26.829 
     530   -27945.819 0.0037216825   -27945.821   -39069.401   -39574.915    -39470.67   -38162.618 0.0039247546       41.337       41.337       26.829 
     540   -27945.836 0.0036004902   -27945.838   -39069.321    -39574.94   -39471.261   -38161.763 0.0033248589       41.337       41.337       26.829 
     550   -27945.852 0.0034265475   -27945.854   -39069.543    -39575.27    -39472.15   -38161.209 0.0037807226       41.337       41.337       26.829 
     560   -27945.868 0.0033159143    -27945.87   -39069.426   -39575.366   -39472.684   -38160.227 0.0031836625       41.337       41.337       26.829 
     570   -27945.883 0.0031589396   -27945.885   -39069.736   -39575.801   -39473.609   -38159.798 0.0036419804       41.33     790   -27946.102 0.0014481774   -27946.103   -39074.883   -39581.003    -39490.64   -38153.006 0.0017814185       41.337       41.337       26.829 
     800   -27946.109 0.0014025637    -27946.11   -39075.246   -39581.261   -39491.454   -38153.023 0.0016337168       41.337       41.337       26.829 
     810   -27946.116 0.0013908469   -27946.117   -39075.084   -39581.058   -39491.765   -38152.429 0.0014442729       41.337       41.337       26.829 
     820   -27946.122 0.0013295826   -27946.122   -39075.451   -39581.288   -39492.578   -38152.486 0.0022833036       41.337       41.337       26.829 
     830   -27946.128 0.0012861397   -27946.128   -39075.719   -39581.437   -39493.283   -38152.435 0.0016752495       41.337       41.337       26.829 
     840   -27946.133 0.0012475839   -27946.134   -39075.966   -39581.564   -39493.948   -38152.385  0.001533268       41.337       41.337       26.829 
     850   -27946.139 0.0012113461    -27946.14   -39076.198   -39581.673   -39494.589    -38152.33 0.0014845206       41.337       41.337       26.829 
     860   -27946.145 0.0011768603   -27946.145   -39076.407   -39581.751   -39495.203   -38152.266  0.001456231       41.337       41.337       26.829 
7       41.337       26.829 
     660   -27945.993 0.0022349272   -27945.995   -39071.372   -39578.076   -39480.463   -38155.576 0.0026717878       41.337       41.337       26.829 
     670   -27946.004 0.0021883978   -27946.005   -39071.305   -39578.065   -39480.972   -38154.879 0.0022260622       41.337       41.337       26.829 
     680   -27946.013 0.0020808651   -27946.015   -39071.849   -39578.562   -39482.037   -38154.949 0.0029303949       41.337       41.337       26.829 
     690   -27946.023 0.0020394651   -27946.024   -39071.794   -39578.551   -39482.537   -38154.294  0.002051059       41.337       41.337       26.829 
     700   -27946.032 0.0019415301   -27946.033   -39072.329   -39579.026   -39483.574   -38154.386 0.0027605693       41.337       41.337       26.829 
     710   -27946.041 0.0019061378   -27946.042   -39072.285   -39578.998   -39484.086   -38153.771 0.0019231841       41.337       41.337       26.829 
     720    -27946.05 0.0018161456   -27946.051   -39072.835   -39579.453   -39485.148   -38153.905  0.002651481       41.337       41.337       26.829 
     730   -27946.058 0.0017497507   -27946.059   -39073.297   -39579.833   -39486.126   -38153.932 0.0019723607       41.337       41.337       26.829 
     740   -27946.066 0.0017259146   -27946.067    -39073.23   -39579.753    -39486.59   -38153.348 0.0016736368       41.337       41.337       26.829 
     750   -27946.074 0.0016466512   -27946.075   -39073.758   -39580.186   -39487.599   -38153.489 0.0025145325       41.337       41.337       26.829 
     760   -27946.081 0.0015886054   -27946.082   -39074.176   -39580.525   -39488.499   -38153.505 0.0018698519       41.337       41.337       26.829 
     770   -27946.089 0.0015702471    -27946.09   -39074.075   -39580.399   -39488.907   -38152.919 0.0015803029       41.337       41.337       26.829 
     780   -27946.095 0.0014993798   -27946.096   -39074.522   -39580.732    -39489.82   -38153.013 0.0024115298       41.337       41.337       26.829 
     790   -27946.102 0.0014481774   -27946.103   -3907